JID,Composition,Spg.numb.,Spg.symb.,Cryst.,Dimensionality,OPT SCF gap, MBJ gap,n-Seebeck,p-Seebeck,n-powerfact,p-powerfact,n-cond,p-cond,n-ZT,p-ZT,Avg.elec.mass,Avg.hole mass,n-mp-Seeb,p-mp-Seeb
JVASP-21680,Ca3Hg2,127,P4/mbm,tetragonal,3D,0.0021,na,0.935812733,1.958151933,140.329711,151.5074015,1505732.733,1502986.3,0.002821006,0.003282712,2.42E-06,2.42E-06,2.710523,3.716179667
JVASP-21681,Sc3Si3Ni2,63,Cmcm,orthorhombic,3D,0.0002,na,7.815054678,7.97464172,217.483484,226.5355187,1207199.733,1213326.49,0.005019739,0.005199979,3.07E-06,3.07E-06,6.086435133,6.5081031
JVASP-21682,Dy(Ni2As)2,136,P4_2/mnm,tetragonal,3D,0.0022,na,-24.985842,-24.30564933,829.9947849,790.6467212,1473901.467,1465181.293,0.021636548,0.020399372,2.49E-06,2.49E-06,-22.51426633,-21.71741067
JVASP-21683,TbF3,62,Pnma,orthorhombic,3D,8.0976,na,-279.84987,490.93647,1169.91477,277.901108,14225.049,1215.20373,0.595348435,0.165605378,0.934807732,0.934807732,-216.6827133,498.9940567
JVASP-21685,Er5Ga3,193,P6_3/mcm,hexagonal,3D,0.0028,na,11.18464663,11.35996653,401.3656282,399.0263735,503450.8333,505605.6267,0.02162739,0.021297794,6.36E-06,6.36E-06,3.045754,3.489072333
JVASP-21686,Nb3Ga2,127,P4/mbm,tetragonal,3D,0.022,na,15.19392633,15.17533967,782.6994551,777.6080617,2475812.5,2500062.667,0.010404347,0.010315565,1.25E-06,1.25E-06,14.29179027,14.11488
JVASP-21687,CaGa3Ni2,63,Cmcm,orthorhombic,3D,0.0015,na,-6.9192604,-7.4708123,139.3306444,161.9820912,3163862.833,3153723,0.002188166,0.002512822,9.60E-07,9.60E-07,-6.908771267,-7.478368567
JVASP-21688,Er3Rh,62,Pnma,orthorhombic,3D,0.0021,na,4.987590667,6.210588,403.6117788,378.1606984,483217.7233,484654.1033,0.025729914,0.024498858,6.67E-06,6.67E-06,5.331069667,6.470370333
JVASP-21689,Sc(GaFe)6,71,Immm,orthorhombic,3D,0.0019,na,1.744645233,1.7158892,59.61970873,56.88785308,1422287.813,1421997.34,0.002569932,0.002455285,2.67E-06,2.67E-06,na,na
JVASP-21690,HfGa2,141,I4_1/amd,tetragonal,3D,0.0058,na,10.79350925,10.38226503,615.3972487,629.2600948,3086129.667,3111680.1,0.007398832,0.007527166,9.18E-07,9.18E-07,11.06560516,10.4914069
JVASP-21691,Hf2Ga3,43,Fdd2,orthorhombic,3D,0.0008,na,9.40247597,9.424577506,372.0069944,356.8125585,2202682.167,2213435.533,0.007999581,0.00767032,1.43E-06,1.43E-06,9.231805533,9.327600367
JVASP-21692,HoGaNi,62,Pnma,orthorhombic,3D,0.0004,na,-5.0916316,-5.227367733,66.13157065,67.62287655,2252114.2,2247590.9,0.001165109,0.00120115,1.44E-06,1.44E-06,-7.173372267,-7.376723133
JVASP-21693,HfMn2,194,P6_3/mmc,hexagonal,3D,1.00E-04,na,-0.8701907,-0.9937025,193.0900889,189.9212399,1541062.567,1540504.8,0.004850864,0.004762946,1.81E-06,1.81E-06,4.765180767,4.512963367
JVASP-21694,HfPd3,194,P6_3/mmc,hexagonal,3D,0.0125,na,4.637142433,4.219161667,129.3247806,133.2723364,1706606.633,1712485.9,0.003215369,0.003238625,1.69E-06,1.69E-06,4.979907733,4.531501833
JVASP-21695,HfPt3,194,P6_3/mmc,hexagonal,3D,0.0139,na,-4.939198,-5.0898057,342.6686528,377.5122911,923960.1267,900970.6567,0.010696241,0.012132969,3.30E-06,3.30E-06,-5.922397567,-5.984006133
JVASP-21697,MoP4,15,C2/c,monoclinic,1D,0.0025,na,-26.295066,-12.0874414,988.1481759,852.3236059,282949.8333,272141.6433,0.094914343,0.083174437,1.20E-05,1.20E-05,-26.960623,-14.87047433
JVASP-21699,Yb2Pb,62,Pnma,orthorhombic,3D,0.0037,na,-11.50968213,-11.04526047,206.6465205,270.2155885,765094.9833,728703.8667,0.009134362,0.013154887,3.97E-06,3.97E-06,-15.25548309,-14.61276553
JVASP-21701,ScRe2,194,P6_3/mmc,hexagonal,3D,0.0016,na,-5.665260133,-5.705631,476.9305284,491.8824616,2997523.5,2991325.533,0.00679805,0.007032949,9.33E-07,9.33E-07,-6.2332021,-6.2502016
JVASP-21705,Tm2NiAs2,194,P6_3/mmc,hexagonal,3D,0.0076,na,-26.12726067,-24.87195,634.5000839,514.8845075,920776.73,895707.7333,0.023935933,0.022189704,3.89E-06,3.89E-06,-28.21721167,-26.67208533
JVASP-21706,KCa(PO3)3,188,P-6c2,hexagonal,3D,5.3165,na,-125.9089933,349.9054733,864.6135877,706.3280955,56764.678,6266.3777,0.311488336,0.405170189,0.581723314,0.581723314,-142.7254267,362.8561233
JVASP-21710,Cu2SnSe3,9,Cc,monoclinic,3D,0.0061,na,-26.3930774,27.9997259,334.3611175,298.9883077,160055.16,155592.39,0.03040656,0.031015276,3.26E-05,3.26E-05,-32.12576087,34.27208368
JVASP-21711,Ce2(Zn2Ge)3,189,P-62m,hexagonal,3D,0.0015,na,42.455338,41.096834,684.1503935,647.4655308,377705.0533,381416.99,0.086287048,0.081538396,7.45E-06,7.45E-06,28.219935,27.46617833
JVASP-21712,Pr2(Zn2Ge)3,189,P-62m,hexagonal,3D,0.0018,na,-26.13683433,-18.50439,477.1760036,236.5032519,684452.82,649417.5367,0.021237518,0.010060983,4.73E-06,4.73E-06,-16.14419967,-9.605746
JVASP-21713,Nd2(Zn2Ge)3,189,P-62m,hexagonal,3D,0.0149,na,-21.90674367,-15.19577,371.3413115,184.3736537,729261.6667,698383.51,0.015440228,0.007277245,4.46E-06,4.46E-06,-12.4779162,-6.896458933
JVASP-21714,Sm2(Zn2Ge)3,189,P-62m,hexagonal,3D,0.0051,na,-12.48342167,-8.135928833,161.0957197,84.90363718,869383.3833,850070.4867,0.005612675,0.002773882,3.58E-06,3.58E-06,-6.3484696,-2.302791033
JVASP-21716,As3W2,12,C2/m,monoclinic,3D,0.0049,na,10.27812733,10.70485457,232.9820975,238.1892726,966103.8067,974330.3333,0.007728975,0.007802047,3.04E-06,3.04E-06,10.71279337,12.0685249
JVASP-21717,RbF,225,Fm-3m,cubic,3D,5.9592,na,-134.42245,549.50329,956.2659176,1694.326853,52921.85567,5611.211,0.352677344,0.966440686,0.640843689,0.640843689,-121.82675,591.99821
JVASP-21719,Sr2MgReO6,225,Fm-3m,cubic,3D,0.0014,na,7.113289167,8.553478,9.097406926,13.25101087,179794.4967,181118.6733,0.001393078,0.002057334,1.93E-05,1.93E-05,na,na
JVASP-21720,Tm5(SiSb)2,64,Cmce,orthorhombic,3D,0.0014,na,-28.5242863,-29.57264247,650.8087353,671.0265941,719412.6067,710832.94,0.064786515,0.067809014,4.50E-06,4.50E-06,-26.17333527,-26.85962473
JVASP-21721,Lu7(NiTe)2,44,Imm2,orthorhombic,3D,0.0023,na,-24.636276,-24.89514833,1149.563854,1161.827489,801526.3667,788618.2767,0.028715333,0.029234289,1.06E-05,1.06E-05,na,na
JVASP-21722,Lu7(TePd)2,44,Imm2,orthorhombic,3D,0.0051,na,-24.10809667,-23.868301,1108.161455,1142.107386,812464.4567,798908.3833,0.027896483,0.028535579,1.25E-05,1.25E-05,na,na
JVASP-21723,HoSnPd,62,Pnma,orthorhombic,3D,0.0014,na,6.600028967,6.758664233,173.9940473,175.3794504,2405622.4,2416041.967,0.00281122,0.002839795,1.35E-06,1.35E-06,9.541815967,9.6800398
JVASP-21724,ThMnSe3,63,Cmcm,orthorhombic,3D,0.0216,na,-25.85898567,32.058036,327.7749228,301.077312,52070.93,52600.01967,0.08253187,0.083917054,8.68E-05,8.68E-05,-29.43415907,15.71545126
JVASP-21726,CaGaAu,62,Pnma,orthorhombic,3D,0.001,na,2.015368433,3.29962127,42.6404595,54.75418739,2798377.867,2804598.333,0.000497905,0.000630185,1.09E-06,1.09E-06,-4.260839914,-3.80363834
JVASP-21727,Ho6GaCo2,71,Immm,orthorhombic,3D,0.0014,na,0.56851765,-0.534511843,14.17146142,12.7534858,511364.19,511932.9867,0.00111203,0.001002211,5.33E-06,5.33E-06,-3.703445433,-4.424779433
JVASP-21728,ErCoSn,62,Pnma,orthorhombic,3D,0.0004,na,-14.0917244,-14.89074,384.5233975,401.8373987,1199355.163,1193634.383,0.016162745,0.017029818,2.30E-06,2.30E-06,-13.51865917,-14.2086527
JVASP-21729,Er5Ge3,193,P6_3/mcm,hexagonal,3D,0.016,na,-52.923572,-55.16345867,1790.774619,1839.027885,593548.3767,572029.1333,0.125875951,0.132450475,4.79E-06,4.79E-06,-50.76947267,-52.367992
JVASP-21730,MgIr2,194,P6_3/mmc,hexagonal,3D,0.0048,na,-0.516030333,-0.845812667,843.9325062,829.0356128,3488379.833,3485761.433,0.011379564,0.011065867,8.05E-07,8.05E-07,2.062764033,1.8011875
JVASP-21731,NaNd2RuO6,14,P2_1/c,monoclinic,3D,0.0299,na,-305.9796567,313.6646533,528.1752957,556.2019271,5601.877167,5799.666,0.301278607,0.320550143,1.025649808,1.025649808,5.776198,4.864022
JVASP-21733,LiSm2IrO6,14,P2_1/c,monoclinic,3D,0.011,na,26.36095753,27.235474,168.9385995,166.2162598,132703.85,134567.7417,0.034142683,0.033654011,2.88E-05,2.88E-05,5.662512333,5.710436167
JVASP-21734,LiNd2IrO6,14,P2_1/c,monoclinic,3D,0.0078,na,20.82128203,21.73391663,152.7602254,148.4575245,130272.232,132032.883,0.030673431,0.029855548,2.94E-05,2.94E-05,6.121505967,6.140667133
JVASP-21735,LiPr2IrO6,14,P2_1/c,monoclinic,3D,0.0026,na,23.3506876,24.43545087,147.6861781,146.9121559,132736.8457,134667.4267,0.028647854,0.028574296,2.92E-05,2.92E-05,7.928292233,7.842899433
JVASP-21736,Lu5Si3,193,P6_3/mcm,hexagonal,3D,0.0064,na,-50.94783033,-52.07746833,2044.939555,2042.12716,741080.29,716996.2633,0.107082269,0.108775992,3.96E-06,3.96E-06,-53.326876,-54.19703767
JVASP-21737,NaNd2IrO6,14,P2_1/c,monoclinic,3D,0.0067,na,24.16341067,23.42802633,221.8825339,210.0682908,102278.738,103733.7807,0.057300893,0.054516314,3.12E-05,3.12E-05,2.651609667,3.083169433
JVASP-21738,NaPr2IrO6,14,P2_1/c,monoclinic,3D,0.0055,na,32.27744,31.35880333,264.2377812,251.6020288,100817.4093,102565.4467,0.070022076,0.067081011,3.19E-05,3.19E-05,4.110835667,4.144159067
JVASP-21741,SmAl4Ni,63,Cmcm,orthorhombic,3D,0.0025,na,18.750503,18.07338133,969.1848101,919.6371794,2696134.667,2733713.9,0.014512174,0.013593338,1.19E-06,1.19E-06,15.48786567,15.0738
JVASP-21747,Pr2CdNi2,127,P4/mbm,tetragonal,3D,0.0003,na,3.105435533,2.7455557,183.6428617,174.8021132,1929269.767,1930933.967,0.003885009,0.003655781,1.51E-06,1.51E-06,-0.463578533,-0.953233067
JVASP-21748,Nd2CdNi2,127,P4/mbm,tetragonal,3D,0.0031,na,-1.623563267,-1.895451,125.3569686,119.9937707,2136193.8,2134078.5,0.001971813,0.001873488,1.33E-06,1.33E-06,-1.238205667,-1.619514733
JVASP-21751,RbVSe2,70,Fddd,orthorhombic,3D,0.0014,na,38.11402133,36.09844667,51.0093144,49.86840795,241324.7213,243726.9513,0.011604586,0.010514441,0.001019718,0.001019718,9.416469033,3.999878033
JVASP-21752,ZrRe2,194,P6_3/mmc,hexagonal,3D,0.0026,na,3.016698733,2.655193633,154.4996921,147.117219,2786554.133,2788227.2,0.002401751,0.002272738,9.80E-07,9.80E-07,1.8594425,1.471032767
JVASP-21766,SnTe3O8,206,Ia3,cubic,3D,3.3415,na,-141.1187,408.73134,669.930004,210.8346176,33640.33367,1262.019433,0.29907135,0.125769297,0.622895007,0.622895007,-143.40162,437.38938
JVASP-21770,Na2LiBe2F7,113,P-42_1m,tetragonal,3D,7.3132,na,-141.0352333,443.2866733,881.1818465,441.4048688,45831.93433,2148.025793,0.342424064,0.258257651,0.663347789,0.663347789,-140.4377667,443.1911833
JVASP-21774,SrZnSb2,62,Pnma,orthorhombic,3D,0.0053,na,-55.8064235,21.17688933,1249.818871,338.1983943,187102.969,185639.7557,0.06510907,0.025634761,2.80E-05,2.80E-05,-84.38728433,-16.67241333
JVASP-21778,Tl2Ge2S5,15,C2/c,monoclinic,3D,1.9311,na,-298.7193333,268.05299,625.2717153,526.0973447,7328.722233,7888.952533,0.361079318,0.302882649,2.750872545,2.750872545,-297.3709833,309.2522933
JVASP-21780,DyBO3,2,P-1,triclinic,3D,5.5224,na,-346.8271133,332.03423,1138.858657,830.3481113,9464.877033,7757.727133,0.641057712,0.45897448,2.303034538,2.303034538,-298.6816667,334.29493
JVASP-21781,NaSm2IrO6,14,P2_1/c,monoclinic,3D,2.7827,na,-10.00009607,-9.374625533,31.72920946,27.59969363,150114.6473,149833.0527,0.006029508,0.005208272,2.76E-05,2.76E-05,2.905867067,2.898221067
JVASP-21782,ErSi3Ni,65,Cmmm,orthorhombic,3D,0.0004,na,2.3357408,1.643254233,246.312327,248.0707998,3301346.367,3319281,0.003104122,0.003344505,1.12E-06,1.12E-06,1.789320733,1.256531067
JVASP-21783,YbAsO4,141,I4_1/amd,tetragonal,3D,4.1971,na,38.182025,36.73999133,948.6028611,887.3717215,601865.55,606113.1733,0.091621477,0.084869093,4.03E-06,4.03E-06,-1.0060798,-2.088527733
JVASP-21784,Mg(CoGe)6,191,P6/mmm,hexagonal,3D,0.0062,na,-13.850461,-13.63157633,367.2425786,374.0912272,2332719.95,2318572.623,0.007097485,0.00683858,2.95E-06,2.95E-06,-15.092478,-15.02770867
JVASP-21785,LiBF4,152,P3_121,trigonal,3D,8.7488,na,-128.2735267,558.48874,753.4445171,91.17786612,46430.42767,293.68455,0.280835036,0.054588219,0.489612279,0.489612279,-169.1491767,544.1746167
JVASP-21786,TbBa2IrO6,225,Fm-3m,cubic,3D,2.7769,na,23.825215,22.412701,560.5705906,498.904954,987544.45,993183.33,0.03017303,0.026616582,2.52E-06,2.52E-06,27.222127,25.918229
JVASP-21788,BaBeF4,62,Pnma,orthorhombic,3D,8.0155,na,-103.7253937,488.8253467,602.5638328,245.6214336,54483.29733,1032.19424,0.210350785,0.145709385,0.421260075,0.421260075,-127.6233633,511.13667
JVASP-21790,Co(PdSe)2,72,Ibam,orthorhombic,3D,0.0002,na,6.243305533,6.0499391,201.7956783,203.4250883,1496949.167,1502474.333,0.005175757,0.005266916,1.91E-06,1.91E-06,9.2258225,8.981756867
JVASP-21791,Co(TePd)2,72,Ibam,orthorhombic,3D,0.005,na,9.644212,10.18582253,176.6663735,207.2216103,1348997.733,1357549.333,0.004694643,0.005501645,2.17E-06,2.17E-06,9.273212833,9.4347875
JVASP-21794,SrNi3Ge2,194,P6_3/mmc,hexagonal,3D,0.0047,na,-11.53034237,-10.3476187,185.4844554,157.3831107,4296792.333,4300291.373,0.012111961,0.010194008,3.38E-06,3.38E-06,-7.1519767,-5.956915167
JVASP-21795,Dy3Pd2,127,P4/mbm,tetragonal,3D,0.0019,na,4.715780567,5.473230567,122.4114582,137.2460282,992953.2733,994663.7667,0.004431777,0.00506789,3.21E-06,3.21E-06,10.31499883,12.1825833
JVASP-21796,Ho3Pd2,127,P4/mbm,tetragonal,3D,0.0038,na,13.96083937,15.27535573,203.1945263,248.4788306,1030003.947,1036096.113,0.007257762,0.008898151,3.22E-06,3.22E-06,20.28314733,22.79502867
JVASP-21797,Er3Pd2,127,P4/mbm,tetragonal,3D,0.0007,na,15.68147467,17.50343733,256.4504332,296.4976454,956841.92,964571.7467,0.008138871,0.009844753,3.89E-06,3.89E-06,27.785312,30.55427633
JVASP-21798,BaAl9Ni2,191,P6/mmm,hexagonal,3D,0.0028,na,-16.90840507,-16.31479133,949.8017313,884.4608764,3094601.2,3060719.067,0.012872708,0.012151262,9.55E-07,9.55E-07,na,na
JVASP-21799,PrB4,127,P4/mbm,tetragonal,3D,0.0066,na,-7.952875667,-4.150311667,507.8883643,548.452088,1431090.1,1426169.7,0.012587049,0.012040654,2.19E-06,2.19E-06,-7.319851333,-4.333439
JVASP-21801,Ca2Cu,62,Pnma,orthorhombic,3D,0.0014,na,12.2890584,12.91831727,269.1759989,272.7199584,1115524.647,1123663.187,0.008243664,0.008383417,2.74E-06,2.74E-06,9.361190233,9.146614667
JVASP-21802,TbBe13,226,Fm-3c,cubic,3D,0.0044,na,-5.147527167,-4.9943909,82.25652836,77.15940865,3104367.167,3093312.733,0.001072925,0.001007889,9.30E-07,9.30E-07,-2.2391526,-1.9366627
JVASP-21803,Nb3S4,176,P6_3/m,hexagonal,3D,0.0127,na,42.98514633,43.901961,714.595766,714.3540125,646524.4867,646623.47,0.094834638,0.098580096,1.28E-05,1.28E-05,na,na
JVASP-21806,Ti2Be17,166,R-3m,trigonal,3D,0.0008,na,10.91471853,11.07916343,522.1958207,514.8537722,2501926.633,2520518.733,0.008239087,0.00809054,1.14E-06,1.14E-06,11.66396147,11.83275953
JVASP-21807,HfAl2,194,P6_3/mmc,hexagonal,3D,0.0046,na,-11.13012073,-3.72554257,141.9816234,37.76174229,951276.3733,945770.9167,0.00370345,0.00097437,3.85E-06,3.85E-06,-6.943319833,0.4918936
JVASP-21808,Mn2Nb,194,P6_3/mmc,hexagonal,3D,0.0029,na,-5.438890957,-5.488839757,71.74300368,71.08778102,1649735.633,1648701.567,0.001839563,0.001823071,1.72E-06,1.72E-06,-4.2311287,-4.29817791
JVASP-21810,TaMn2,194,P6_3/mmc,hexagonal,3D,0.002,na,8.511042,8.417614433,111.6993087,109.1061275,1483142.967,1484330.333,0.002961742,0.002892105,1.91E-06,1.91E-06,6.1382645,6.061002233
JVASP-21811,Er2InPd2,127,P4/mbm,tetragonal,3D,0.0021,na,8.019329333,8.539885333,1348.420307,1470.909158,3278329.533,3291938.567,0.015779343,0.017329645,9.05E-07,9.05E-07,0.183360733,1.389668667
JVASP-21812,Lu2InPd2,127,P4/mbm,tetragonal,3D,0.0049,na,4.864334,6.12742,1440.272387,1595.782837,3273528.133,3279060.6,0.015461907,0.017388441,9.48E-07,9.48E-07,-1.7589412,-0.711696333
JVASP-21814,Sc(MnSn)6,191,P6/mmm,hexagonal,3D,0.003,na,19.35080873,19.12429523,465.9412304,457.09099,1399893.133,1402456.5,0.018386315,0.018058906,2.27E-06,2.27E-06,na,na
JVASP-21817,TbGaPd,62,Pnma,orthorhombic,3D,0.0011,na,-0.137342967,-0.194016733,39.11014841,36.75934222,2480557.367,2480992.633,0.000510767,0.000486264,1.34E-06,1.34E-06,-1.301003227,-1.494432133
JVASP-21818,TbAlPd,62,Pnma,orthorhombic,3D,0.0007,na,1.301816033,0.834244767,200.7502338,198.6194842,2067148.5,2071635.467,0.004562326,0.00458914,1.44E-06,1.44E-06,2.272275567,1.847745667
JVASP-21819,YbBa2RuO6,225,Fm-3m,cubic,3D,0.0045,na,17.22388,19.09895,186.0692205,230.1881261,627209.3967,631050.2367,0.00867672,0.010779094,6.11E-06,6.11E-06,15.674288,17.232617
JVASP-21821,Sr(GaAu)2,129,P4/nmm,tetragonal,3D,0.001,na,3.4354214,3.345005267,306.841689,321.1650415,4994471.367,4993775.7,0.004545722,0.004702962,7.05E-07,7.05E-07,2.4629688,2.439069133
JVASP-21822,YbAlAu,62,Pnma,orthorhombic,3D,0.0028,na,1.344859667,1.6286101,285.1339834,313.6664963,2484433.533,2488280.733,0.004174382,0.004580575,1.21E-06,1.21E-06,2.389988367,2.2206392
JVASP-21824,Yb(Al5Fe)2,63,Cmcm,orthorhombic,3D,0.0053,na,-7.437067667,-5.7505792,67.25158918,48.24761007,548450.1267,547599.9433,0.003843063,0.002749198,5.78E-06,5.78E-06,-2.715851233,-1.6459777
JVASP-21825,BaBe2Si2O7,31,Pmn2_1,orthorhombic,3D,6.0564,na,-92.85850333,441.0160067,550.1300387,577.7734207,63521.028,2889.038,0.179141823,0.337039695,0.359867908,0.359867908,-109.30787,443.52535
JVASP-21826,BaEr2F8,12,C2/m,monoclinic,3D,7.4706,na,-194.39582,402.4060133,918.3273133,145.1710678,22002.21367,899.0462967,0.404165792,0.086919548,0.858813659,0.858813659,-152.45512,405.9665467
JVASP-21827,Na2LiAu3,194,P6_3/mmc,hexagonal,3D,0.0026,na,-6.2145205,-6.838738233,206.3938617,247.1727797,6539604.933,6500045.033,0.002163615,0.002589388,5.27E-07,5.27E-07,-1.580874433,-2.3636539
JVASP-21829,LiCaGaF6,163,P-31c,trigonal,3D,6.65,na,-130.67438,565.1947033,783.8959965,138.4182297,46836.881,464.0759167,0.295253143,0.082778596,0.591841712,0.591841712,-152.0197167,558.9711633
JVASP-21832,YbGaGe,194,P6_3/mmc,hexagonal,3D,0.0039,na,-40.502012,-37.17256267,1915.776533,1580.096799,873340.6133,788784.64,0.068200845,0.059143225,3.86E-06,3.86E-06,-31.32236427,-32.1645269
JVASP-21833,Tb2Si5Rh3,15,C2/c,monoclinic,3D,0.0022,na,-22.86335133,-20.90797767,454.6254251,377.3582555,731622.4733,722977.4867,0.020147476,0.016778709,4.39E-06,4.39E-06,-27.48275067,-26.04528867
JVASP-21834,ZrU3Sb5,193,P6_3/mcm,hexagonal,3D,0.0002,na,55.43066933,55.36867067,757.7405738,761.1610855,293224.6067,294770.1467,0.102098251,0.102376059,1.26E-05,1.26E-05,11.76466723,11.54331637
JVASP-21835,HfU3Sb5,193,P6_3/mcm,hexagonal,3D,0.0015,na,53.03557467,53.00415967,674.8522618,678.3826888,280711.8,282173.8133,0.091327998,0.091738031,1.30E-05,1.30E-05,na,na
JVASP-21837,NdAl4Co,51,Pmma,orthorhombic,3D,0.0004,na,-7.7827518,-4.9705308,184.1653403,132.4111677,862068.1633,856180.95,0.005612332,0.004122658,3.47E-06,3.47E-06,-8.652968013,-5.8724868
JVASP-21838,Ba3CrN3,176,P6_3/m,hexagonal,3D,0.118,na,-35.75774067,-36.01497867,221.7088385,164.0342853,278930.8123,265065.7963,0.02540762,0.022780613,4.97E-05,4.97E-05,-38.131106,-27.80630533
JVASP-21839,Sr3CrN3,176,P6_3/m,hexagonal,3D,0.0022,na,-12.26155645,-13.35108463,15.52773154,18.58723248,270076.172,268124.423,0.004764584,0.005650599,2.89E-05,2.89E-05,-20.06377633,-17.0230686
JVASP-21840,SrPIr,198,P2_13,cubic,3D,0.0077,na,4.4864922,5.2170739,23.6113191,32.11656047,1173022.7,1179981.1,0.000752846,0.001016938,2.41E-06,2.41E-06,7.1921726,7.5204965
JVASP-21841,Yb(FeP3)4,204,Im3,cubic,3D,0.1433,na,12.923126,13.575088,75.97053051,84.1019708,454893.7833,456373.97,0.005479723,0.006021684,6.53E-06,6.53E-06,16.065428,17.028971
JVASP-21842,Er5Sb3,193,P6_3/mcm,hexagonal,3D,0.0036,na,-8.892948267,-9.4679277,161.7434013,179.8869121,1314192.85,1308746.827,0.003728145,0.004206524,2.52E-06,2.52E-06,-3.966845593,-4.191206547
JVASP-21843,TbNi4B,191,P6/mmm,hexagonal,3D,0.0014,na,6.8581605,6.639244523,87.31043069,89.4950171,2408924.767,2414350.9,0.002434745,0.002526871,1.61E-06,1.61E-06,0.721188533,0.663233767
JVASP-21844,ErNi4B,191,P6/mmm,hexagonal,3D,0.0021,na,1.870994967,1.795431567,21.87214237,32.56971578,2536630.4,2537328.1,0.000449703,0.000601068,1.51E-06,1.51E-06,-1.469997013,-1.456366833
JVASP-21845,Pr2CdPd2,127,P4/mbm,tetragonal,3D,0.0016,na,1.823664533,2.106866767,32.9219758,35.0260606,2129925.9,2132468.267,0.000624835,0.000675757,1.37E-06,1.37E-06,-1.96040414,-1.629219867
JVASP-21846,Sm2CdPd2,127,P4/mbm,tetragonal,3D,0.0046,na,-2.75199804,-2.453534547,73.68640417,62.01865807,2265097.767,2261790.5,0.001105812,0.00093232,1.28E-06,1.28E-06,-5.120074667,-4.8793928