JID,Composition,Spg.numb.,Spg.symb.,Cryst.,Dimensionality,OPT SCF gap, MBJ gap,n-Seebeck,p-Seebeck,n-powerfact,p-powerfact,n-cond,p-cond,n-ZT,p-ZT,Avg.elec.mass,Avg.hole mass,n-mp-Seeb,p-mp-Seeb
JVASP-20971,YbPO4,141,I4_1/amd,tetragonal,3D,0.0604,na,-20.94487233,-22.26855833,175.8191019,196.6292145,402368.3867,399376.5833,0.020395472,0.022670318,6.65E-06,6.65E-06,0.3089662,-0.831227933
JVASP-20972,Na3ScF6,14,P2_1/c,monoclinic,3D,7.0886,na,-545.7986533,577.8092933,10.91504924,58.12400283,37.40094067,183.4191267,0.006547919,0.034810665,668.7836677,668.7836677,-284.63415,582.1205167
JVASP-20974,Zn(CrS2)2,227,Fd-3m,cubic,3D,0.231,na,-71.304673,134.07563,250.8634612,335.3152124,49340.259,18653.20933,0.085934219,0.100464226,0.000518148,0.000518148,4.592769,5.8756854
JVASP-20975,BaAl2O4,173,P6_3,hexagonal,3D,4.2763,na,-108.985693,398.95992,702.2876071,191.4299415,58765.95667,1364.68336,0.245670459,0.113650231,0.46076153,0.46076153,-115.2072467,408.22047
JVASP-20976,Nb3Co4B7,63,Cmcm,orthorhombic,3D,0.0013,na,10.14953937,10.8667554,72.928259,79.16970624,608478.7967,610180.5967,0.004440733,0.004757355,5.47E-06,5.47E-06,15.65019733,16.045627
JVASP-20978,CaIrO3,63,Cmcm,orthorhombic,3D,0.0123,na,43.06560567,42.64544933,3018.845278,2995.2573,862378.417,867513.9893,0.142178562,0.140013927,5.91E-05,5.91E-05,40.90336267,40.39444967
JVASP-20979,Pr(Sb3Os)4,204,Im3,cubic,3D,0.3069,na,60.528794,57.048706,2010.188232,1853.968185,548671.8567,569653.3833,0.169290578,0.150878837,4.29E-06,4.29E-06,na,na
JVASP-20980,NaSi2Pd3,44,Imm2,orthorhombic,3D,0.0048,na,-13.6563643,-14.59610173,1090.786936,1111.134592,1771445.533,1745459.1,0.026140905,0.027309784,1.61E-06,1.61E-06,-16.40538317,-17.04755593
JVASP-20981,Er2Si3Rh,194,P6_3/mmc,hexagonal,3D,0.0156,na,5.350202263,6.278500237,74.59615749,126.3876002,1149900.41,1155669.493,0.002495671,0.004232061,2.60E-06,2.60E-06,5.5110721,5.823678867
JVASP-20982,Tm(MnSn)6,191,P6/mmm,hexagonal,3D,0.001,na,18.1764805,18.46722433,567.6161211,557.2530183,1087322.983,1095659.517,0.024249002,0.023718973,2.76E-06,2.76E-06,na,na
JVASP-20983,PrAgAs2,62,Pnma,orthorhombic,3D,0.0008,na,0.913978133,3.330062733,368.1708303,429.2162358,1174021.477,1136892.897,0.013866959,0.018485666,7.76E-06,7.76E-06,1.7915957,3.357116533
JVASP-20985,TbPO4,141,I4_1/amd,tetragonal,3D,6.157,na,-408.9074267,434.5219533,1815.622983,1525.515675,11060.91667,8277.696633,0.995506765,0.838933139,2.595823564,2.595823564,-294.97766,432.2569733
JVASP-20986,Pr(P3Ru)4,204,Im3,cubic,3D,0.0044,na,15.724766,25.937607,67.37270714,186.7172156,272468.07,277539.34,0.005416502,0.015029432,1.41E-05,1.41E-05,na,na
JVASP-20988,TbAl4Ni,63,Cmcm,orthorhombic,3D,0.0031,na,19.85161,18.824072,1083.415063,996.8032092,3001431.433,3041960.667,0.017066091,0.015411261,1.08E-06,1.08E-06,19.20038233,18.40761467
JVASP-20989,Ca3Sn13Rh4,223,Pm-3n,cubic,3D,0.0176,na,4.9554039,5.4415957,19.30707349,23.32593632,786245.79,787746.61,0.00091025,0.001089438,3.62E-06,3.62E-06,4.5633695,5.3618133
JVASP-20990,SbPdSe,198,P2_13,cubic,3D,0.0108,na,18.401782,18.320689,548.0394283,551.5490663,1618423,1643238.3,0.013107349,0.013227714,1.67E-06,1.67E-06,19.49011,19.055693
JVASP-20992,BaAlF5,19,P2_12_12_1,orthorhombic,3D,7.9205,na,-123.71361,464.2697133,836.9103435,238.4868675,54825.57733,1077.109633,0.302467356,0.141795134,0.524142458,0.524142458,-114.3789853,435.3881567
JVASP-20993,TbK2F6,15,C2/c,monoclinic,3D,7.4662,na,60.68768933,59.739193,192.5324574,192.5254838,65344.87167,65799.95367,0.064381754,0.065131979,0.000100519,0.000100519,67.71980467,67.678452
JVASP-20995,Ba(NO3)2,205,Pa3,cubic,3D,3.5998,na,-409.40251,469.74038,227.4439142,125.4061181,1356.9796,568.33308,0.135992019,0.074981197,11.80761692,11.80761692,-452.70288,481.68277
JVASP-20996,CaSO4,63,Cmcm,orthorhombic,3D,6.4716,na,-122.24766,419.62839,729.6071531,1123.782923,49107.002,6326.832933,0.258781028,0.627838694,0.456448696,0.456448696,-128.5391133,428.2866233
JVASP-20997,Al2(SO4)3,148,R-3,trigonal,3D,6.608,na,-150.92853,424.3844767,1019.347898,272.4950456,44757.91867,1509.9646,0.403618205,0.162344383,0.72754264,0.72754264,-140.1484333,442.1342733
JVASP-20998,V4GaS8,216,F-43m,cubic,3D,0.8077,na,-37.851589,-41.305055,220.2619057,258.5035441,153734.4367,151516.5567,0.060935447,0.072359404,1.44E-05,1.44E-05,19.386127,18.656484
JVASP-20999,CaSiPt,198,P2_13,cubic,3D,0.0057,na,16.923138,17.065419,415.9550654,433.5496637,1452394.6,1488692.3,0.011080395,0.011281225,1.96E-06,1.96E-06,18.085412,18.15649
JVASP-21000,ZrNbP,62,Pnma,orthorhombic,3D,0.0012,na,-13.24394031,-13.0316553,788.6830142,793.7660355,2015635.2,2002825.133,0.015034698,0.015366256,1.45E-06,1.45E-06,-12.7379723,-12.2738022
JVASP-21001,Ta6Si7Ni16,225,Fm-3m,cubic,3D,0.0033,na,-20.200381,-21.136068,216.3079084,234.9352196,530094.4733,525895.8367,0.017248803,0.018649478,5.01E-06,5.01E-06,na,na
JVASP-21002,K2SO4,62,Pnma,orthorhombic,3D,5.8634,na,-108.3525167,436.98831,730.1060852,253.6740882,64726.67567,1309.680163,0.241402315,0.151039815,0.46023142,0.46023142,-134.5855367,454.2979433
JVASP-21003,Li2SO4,14,P2_1/c,monoclinic,3D,6.4369,na,-122.7952467,481.1381467,764.4105786,139.8620272,51351.129,615.12084,0.276324587,0.083646238,0.523282645,0.523282645,-148.0437233,497.80532
JVASP-21005,PrPO4,14,P2_1/c,monoclinic,3D,5.7774,na,-358.4204367,390.5202267,1094.26642,533.754939,8729.816767,3660.967233,0.602894887,0.312466868,2.692286032,2.692286032,-349.75263,392.25392
JVASP-21006,SrNb2O6,14,P2_1/c,monoclinic,3D,2.9739,na,-328.64782,448.50552,1579.251234,224.7354213,12136.0339,1143.51555,0.787920024,0.133227411,4.657916453,4.657916453,-317.2764233,434.3817333
JVASP-21007,Li7VN4,205,Pa3,cubic,3D,3.0495,na,-387.79343,419.02579,258.3760105,232.1231813,1718.1113,1322.0169,0.154411494,0.138669663,8.750658982,8.750658982,-408.75517,440.43382
JVASP-21008,U(Al2Fe)4,139,I4/mmm,tetragonal,3D,0.0002,na,21.16786078,20.78355067,732.1052869,722.468704,903375.9133,907803.14,0.033159288,0.032534196,3.11E-06,3.11E-06,17.3533549,17.02489397
JVASP-21009,HfSiO4,141,I4_1/amd,tetragonal,3D,5.4466,na,-444.5135733,345.00821,2111.803469,1259.942235,11325.95453,10906.03153,1.134443393,0.665036702,16.50939354,16.50939354,-422.0355633,355.76145
JVASP-21010,Li2BeF4,148,R-3,trigonal,3D,7.8616,na,-175.49458,432.0106567,1142.904142,193.3058142,37126.11867,1052.63816,0.488191332,0.115437245,0.945482399,0.945482399,-165.2251367,465.6894933
JVASP-21011,Sr3(PO4)2,166,R-3m,trigonal,3D,5.995,na,-281.8539267,390.2617567,1949.136296,1017.958133,24547.944,6873.856633,0.934475251,0.57723021,1.118206957,1.118206957,-120.6361167,397.57541
JVASP-21013,KTeF5,57,Pbcm,orthorhombic,3D,5.3473,na,-282.07839,364.5647067,1058.42244,417.0140623,12454.687,3185.8135,0.566907743,0.24454679,1.347245432,1.347245432,-299.36801,346.7809367
JVASP-21016,ZrSnRh,190,P-62c,hexagonal,3D,0.0059,na,-10.87493493,-12.76042851,63.63956227,52.00233543,695977.8133,694010.1533,0.008154274,0.007846051,9.37E-06,9.37E-06,-15.99278991,-18.58333367
JVASP-21017,TbPS4,142,I4_1/acd,tetragonal,3D,2.2886,na,-309.1883533,324.5829067,795.1152664,790.2762496,8368.3946,7472.375167,0.459352939,0.457434112,2.365657017,2.365657017,-297.09645,305.3752533
JVASP-21021,Th(Al2Fe)4,139,I4/mmm,tetragonal,3D,0.0005,na,-8.3955122,-8.709791167,106.5500488,114.1530828,1449376.4,1445097.633,0.004074221,0.004384411,2.03E-06,2.03E-06,-5.7246324,-5.9133384
JVASP-21022,RbSb3Se5,14,P2_1/c,monoclinic,3D,1.2205,na,-255.13011,274.77904,986.4782261,956.3286044,15133.11147,11446.45367,0.515657921,0.503205703,1.238307062,1.238307062,-195.3528167,270.39749
JVASP-21025,Na5Al3F14,128,P4/mnc,tetragonal,3D,7.0055,na,-132.5695567,416.08293,1015.129286,342.5535958,61306.937,2064.943447,0.358239262,0.202681968,0.696373636,0.696373636,-141.3664933,419.1041033
JVASP-21026,Al2SiO5,58,Pnnm,orthorhombic,3D,4.9771,na,-141.6302,351.8112467,1092.441959,786.0509233,54309.58167,6034.028,0.401201626,0.446112043,0.662568481,0.662568481,-106.9514367,386.27417
JVASP-21027,Sc3Fe2Si3,63,Cmcm,orthorhombic,3D,0.0095,na,14.99636473,14.74357383,277.3521708,279.0542316,700933.2367,707227.8433,0.010046786,0.0099538,6.31E-06,6.31E-06,4.798329667,4.972493667
JVASP-21028,K2NbF7,14,P2_1/c,monoclinic,3D,4.5049,na,-478.8238933,485.8909033,6.234426732,13.27432656,27.52597533,57.112483,0.003740536,0.007961439,640.8170628,640.8170628,-473.94114,484.6760367
JVASP-21030,SiP2O7,14,P2_1/c,monoclinic,3D,6.295,na,-124.914859,447.40364,751.6856114,401.3750092,48357.92133,2375.390037,0.280918431,0.235947416,0.506870576,0.506870576,-128.8332467,428.4579233
JVASP-21031,Li2B4O7,110,I4_1cd,tetragonal,3D,6.1792,na,-152.0725,370.72972,859.0027287,232.2879737,37165.68167,1671.858267,0.362695971,0.138828586,0.677839267,0.677839267,-154.4362833,405.9472467
JVASP-21032,Sm2As4O9,2,P-1,triclinic,3D,3.3341,na,-357.09303,341.2510233,653.3012938,785.7105388,5339.501667,6996.056667,0.376344436,0.4470209,6.872089209,6.872089209,na,na
JVASP-21034,Li4TeO5,2,P-1,triclinic,3D,2.8293,na,-169.6924133,425.1725967,890.6757182,884.1111186,30824.11433,4918.719033,0.392718679,0.511472798,0.79893395,0.79893395,24.17195697,25.55606853
JVASP-21037,Na2ThF6,150,P321,trigonal,3D,7.052,na,-406.00789,481.96283,107.0423667,300.6948543,586.04769,1300.1843,0.063873424,0.178970717,28.72210087,28.72210087,-410.7975933,484.6171033
JVASP-21040,Li2SeO4,148,R-3,trigonal,3D,4.0217,na,-182.1861,411.58967,1004.256577,159.457971,30303.461,922.7460133,0.457735706,0.095208538,0.958561126,0.958561126,-175.35398,424.7231833
JVASP-21041,CaMgSn,62,Pnma,orthorhombic,3D,0.0129,na,-55.191394,21.30066467,805.8878932,198.6067629,136066.55,128245.62,0.08916374,0.028516077,3.44E-05,3.44E-05,-33.09951627,1.089046667
JVASP-21042,Ca3Co2(GeO4)3,230,Ia-3d,cubic,3D,0.9857,na,-434.79535,428.56171,266.0277084,271.1830536,1407.2041,1476.508033,0.158632862,0.161070278,14.10512627,14.10512627,na,na
JVASP-21043,Ca3Ge3(MoO6)2,230,Ia-3d,cubic,3D,0.1061,na,-77.817213,-95.257478,389.0333312,344.6377949,64244.428,37980.85567,0.12755539,0.122778223,0.00016079,0.00016079,na,na
JVASP-21044,U2PdS4,43,Fdd2,orthorhombic,3D,0.0102,na,-11.30040067,-11.0576001,36.6914715,37.06357011,44761.124,44621.35,0.012959733,0.013091064,7.59E-05,7.59E-05,-8.001488933,-8.300920333
JVASP-21048,Y4Ga12Pd,229,Im-3m,cubic,3D,0.002,na,7.453140767,11.915444,122.8152633,317.7979003,2210923.4,2238363.233,0.001793896,0.004662474,1.38E-06,1.38E-06,13.067323,17.658593
JVASP-21049,Sc6Si7Ni16,225,Fm-3m,cubic,3D,0.0012,na,-9.060405133,-9.260635033,97.3422149,101.4135063,1185785.1,1182535.7,0.00335525,0.003492721,2.36E-06,2.36E-06,na,na
JVASP-21051,Ag3AsO4,218,P-43n,cubic,3D,0.0268,na,-35.767,-7.9576868,197.5753337,8.809532412,154442.81,139116.67,0.028138942,0.001169346,2.86E-05,2.86E-05,-33.542157,-5.4842909
JVASP-21052,Li6Zr2O7,15,C2/c,monoclinic,3D,4.1256,na,-290.97083,388.37815,1334.210921,793.0236586,15620.00933,5311.783967,0.659921903,0.447623837,2.451185635,2.451185635,-307.3447767,395.80008
JVASP-21053,ErB3Mo,11,P2_1/m,monoclinic,3D,0.0011,na,-23.040538,-22.93445167,1270.700693,1246.23913,2200160.067,2168045.967,0.025153693,0.024997711,1.38E-06,1.38E-06,-21.37275533,-21.351784
JVASP-21054,Mg2P2O7,12,C2/m,monoclinic,3D,5.8143,na,-146.90251,332.29528,1050.981723,893.378399,48677.758,8584.293833,0.408936928,0.486457369,0.658151931,0.658151931,-117.0508867,359.7468933
JVASP-21056,K2ZrF6,15,C2/c,monoclinic,3D,5.7094,na,-338.9397333,412.89567,274.5550973,269.105863,1999.56184,1600.09138,0.162748259,0.160651161,99.25374425,99.25374425,-346.8925167,424.2312867
JVASP-21060,CaMgSi,62,Pnma,orthorhombic,3D,0.0159,na,-129.323424,86.308021,1518.098305,497.7516761,65098.101,63422.10867,0.275512447,0.106612082,0.000165164,0.000165164,-95.425962,69.26963933
JVASP-21065,ThB4Mo,65,Cmmm,orthorhombic,3D,0.0023,na,-6.408256067,-6.5911834,222.3059273,235.845711,1552905.1,1549928.6,0.005964927,0.006339838,2.01E-06,2.01E-06,-5.2494906,-5.443866733
JVASP-21069,BaSiF6,166,R-3m,trigonal,3D,7.9332,na,-102.03986,357.1923967,612.9667262,908.3569268,58906.67567,7328.5119,0.214682093,0.50841417,0.448821543,0.448821543,-125.7886467,363.2069167
JVASP-21071,Cr2HgSe4,227,Fd-3m,cubic,3D,0.0174,na,-82.53089133,29.47384467,456.4745576,33.17070881,67016.772,38183.978,0.120734003,0.007737058,0.000139939,0.000139939,3.3478731,4.2989165
JVASP-21073,K(RuO2)4,87,I4/m,tetragonal,3D,0.0003,na,-7.300277133,7.3637163,36.83120315,60.26600139,235952.5273,236724.6337,0.002779282,0.002318267,6.45E-05,6.45E-05,na,na
JVASP-21074,Tm(MnGe)6,191,P6/mmm,hexagonal,3D,0.0014,na,7.6370054,8.527953663,53.64013981,76.01895056,1302490.65,1303765,0.002567877,0.003612442,3.48E-06,3.48E-06,na,na
JVASP-21075,Ti3SiC2,194,P6_3/mmc,hexagonal,3D,0.0052,na,-7.988850367,-7.755854933,301.718349,294.0171022,3311119.633,3299483.267,0.003985817,0.003902179,8.73E-07,8.73E-07,-7.593124667,-7.583853333
JVASP-21076,LiTi2O4,227,Fd-3m,cubic,3D,0.0347,na,0.88455569,-0.105845613,0.916539619,0.013120512,1171388.3,1171129.9,3.65E-05,5.21E-07,2.29E-06,2.29E-06,-1.7998089,-2.5528847
JVASP-21082,Nd(BC)2,127,P4/mbm,tetragonal,3D,0.0067,na,-8.966006133,-9.207606333,430.6107955,455.3339567,4657748.567,4623703.467,0.003774367,0.004028101,6.08E-07,6.08E-07,-9.2854488,-9.5509058
JVASP-21084,DyPO4,141,I4_1/amd,tetragonal,3D,6.2372,na,-416.9038033,431.2053467,1858.320261,1510.402128,11132.34407,8345.581933,1.022521755,0.827807417,3.17174665,3.17174665,-231.81575,424.1614167
JVASP-21085,BaRuO3,166,R-3m,trigonal,3D,0.0132,na,32.15999327,33.74449507,1987.325338,1992.574606,332438.2633,339932.4967,0.139222556,0.137269873,1.37E-05,1.37E-05,24.40572843,25.79544857
JVASP-21088,TaAgS3,63,Cmcm,orthorhombic,3D,0.0039,na,-57.88700133,56.58477567,225.6572272,399.9052075,76591.496,88668.35433,0.058813309,0.064624897,7.39E-05,7.39E-05,-68.335568,67.610693
JVASP-21089,Cu(SbO3)2,58,Pnnm,orthorhombic,3D,0.0014,na,21.95748997,23.0736899,81.23281355,81.39429013,218437.0473,219326.631,0.034763135,0.030251121,1.97E-05,1.97E-05,12.236582,12.78269233
JVASP-21093,TmPO4,141,I4_1/amd,tetragonal,3D,6.3518,8.243,-326.6952967,419.3431533,1678.831302,1465.528577,18029.955,8620.604733,0.779504223,0.794167619,1.068446366,1.068446366,-138.19905,411.1529433
JVASP-21100,Nd2MgNi2,127,P4/mbm,tetragonal,3D,0.0024,na,-2.053645233,-2.120529067,60.63310413,63.32045437,1805085.867,1803359.433,0.000998392,0.001047259,1.67E-06,1.67E-06,-5.699955,-5.849196867
JVASP-21101,KCaF3,62,Pnma,orthorhombic,3D,7.082,na,-154.9616267,566.7466033,1074.485368,200.1221736,45633.871,639.6458233,0.424356667,0.119495781,0.752277144,0.752277144,-142.2691767,548.93046
JVASP-21103,Cd2Os2O7,227,Fd-3m,cubic,3D,0.0053,na,9.426461833,9.817593233,79.35652479,86.42378794,893069.41,896650.57,0.003181335,0.003479421,3.34E-06,3.34E-06,na,na
JVASP-21106,YBPt2,180,P6_222,hexagonal,3D,0.0044,na,-24.71428683,-18.18313207,277.3610506,148.9864779,536397.93,528140.71,0.018478354,0.010309138,7.30E-06,7.30E-06,-19.23742533,-11.944823
JVASP-21109,Y(BRh)4,137,P4_2/nmc,tetragonal,3D,0.0114,na,-4.9533526,-5.3803039,57.10970756,65.10706188,2006294.167,2003556.5,0.001293384,0.00146822,1.37E-06,1.37E-06,-2.593312767,-3.2189299
JVASP-21113,LiSiNO,29,Pca2_1,orthorhombic,3D,5.6954,na,-124.0230233,386.6784733,790.7195338,855.874861,51687.52633,5834.677767,0.290691927,0.489155751,0.509988199,0.509988199,-124.2805,399.2824167
JVASP-21116,Be3Al2(SiO3)6,192,P6/mcc,hexagonal,3D,5.34,na,-122.7914167,325.4284,738.8321664,1022.378375,49014.453,10019.91153,0.280500229,0.55270547,0.51018122,0.51018122,-121.0844567,330.0987067
JVASP-21118,BaBPO5,154,P3_221,trigonal,3D,5.8746,na,-111.6204833,268.5066267,624.7827621,854.0884333,50143.198,9259.555767,0.234911264,0.457243247,0.433742304,0.433742304,-122.8239567,271.3069733
JVASP-21122,K2NaScF6,225,Fm-3m,cubic,3D,7.0373,na,-503.86991,464.73527,161.7758075,975.5516444,637.20141,4516.884633,0.096943959,0.569312643,22.43682024,22.43682024,-241.96696,483.34277
JVASP-21124,YAl3(BO3)4,155,R32,trigonal,3D,5.4818,6.402,-388.42336,484.2629367,679.5722121,115.7298776,4685.298233,487.11452,0.397297533,0.068844578,8.412644498,8.412644498,na,na
JVASP-21125,Sr3LiIrO6,167,R-3c,trigonal,3D,0.0093,na,28.587199,25.9569,262.5041731,231.7836669,149439.43,152877.61,0.045641445,0.040276799,2.16E-05,2.16E-05,16.86607033,16.65103433
JVASP-21126,TmMn6(GaSn2)2,191,P6/mmm,hexagonal,3D,0.0053,na,6.686418667,6.339641,286.7711101,287.0790833,1346002.333,1347321.833,0.009351294,0.009256076,2.22E-06,2.22E-06,na,na
JVASP-21127,KRb2TiF6,225,Fm-3m,cubic,3D,0.8933,na,-43.369455,-47.852829,31.27365803,37.5412052,16626.87967,16394.30367,0.018496928,0.022208808,9.38E-05,9.38E-05,-47.065198,-51.769394
JVASP-21138,LiTiAsO5,62,Pnma,orthorhombic,3D,3.1821,na,-427.64274,369.8310033,672.4200888,791.7614726,2792.53484,5772.2137,0.386178915,0.45581959,46.21215318,46.21215318,-455.16508,365.50486
JVASP-21143,LiCaAlF6,163,P-31c,trigonal,3D,8.094,na,-122.2997733,553.07652,861.0923352,141.3157622,59909.68133,471.2491967,0.300778636,0.084548496,0.590103652,0.590103652,-143.0940333,557.0991433
JVASP-21144,Ba2PrIrO6,225,Fm-3m,cubic,3D,0.0433,na,19.546534,18.845353,186.0928677,175.9223706,487068.6867,495350.3967,0.014123678,0.013451842,5.65E-06,5.65E-06,22.851084,22.432875
JVASP-21161,KLiBeF4,173,P6_3,hexagonal,3D,7.1196,na,-138.8128267,467.65973,932.9462332,248.9057108,49995.94533,1177.51227,0.346194448,0.148611093,0.628197386,0.628197386,-148.7624867,474.6719967
JVASP-21165,Al2Si(O2F)2,62,Pnma,orthorhombic,3D,6.1766,na,-83.76016733,311.4318267,577.1811536,879.6373183,84024.713,8504.990467,0.161778307,0.480618835,0.329874644,0.329874644,-118.07257,330.0306433
JVASP-21175,TbBa3Ru2O9,194,P6_3/mmc,hexagonal,3D,0.0299,na,22.49967,20.28604333,83.76710085,72.07148768,108429.6633,110166.6943,0.018502193,0.01582384,2.68E-05,2.68E-05,28.09691367,27.90280433
JVASP-21188,Ca2FeIrO6,14,P2_1/c,monoclinic,3D,0.0106,na,-25.25558867,-20.43176,163.903832,136.1810435,111085.6503,109211.1717,0.025869063,0.021353878,4.36E-05,4.36E-05,na,na
JVASP-21368,CaMg(CO3)2,148,R-3,trigonal,3D,5.1719,na,-307.5059133,496.7681233,1052.161678,887.5853185,11261.90767,3754.957967,0.559176477,0.515314987,2.331721367,2.331721367,-293.39857,500.0771533
JVASP-21370,SrBPO5,152,P3_121,trigonal,3D,5.787,na,-139.36397,270.32917,949.5228028,1562.011203,48881.85033,15392.64343,0.362054326,0.726276084,0.647059434,0.647059434,-124.47804,270.4525067
JVASP-21373,KRb2ScF6,14,P2_1/c,monoclinic,3D,7.0509,na,-476.32393,559.1054333,69.84064931,52.72291501,307.74383,169.1685067,0.041802141,0.031598783,31.65144793,31.65144793,-143.6764733,536.6267167
JVASP-21374,Ba3MgRu2O9,194,P6_3/mmc,hexagonal,3D,0.0165,na,38.07872433,41.81894033,157.730429,156.0232481,72684.486,72756.49933,0.050051276,0.054242465,0.00010012,0.00010012,0.642996133,-0.2075295
JVASP-21379,NaLu(Pd3O4)2,200,Pm3,cubic,3D,0.0309,na,12.253942,24.874356,43.30243371,181.2727176,288377.03,292973.78,0.00312843,0.01301223,1.33E-05,1.33E-05,26.074567,35.157645
JVASP-21387,K2NaAlF6,225,Fm-3m,cubic,3D,7.4899,10.8949,-145.33483,471.3164,960.4656913,922.1396588,45471.831,4151.1803,0.372055453,0.540883105,0.631930251,0.631930251,-131.63581,488.79094
JVASP-21388,SrLiAlF6,163,P-31c,trigonal,3D,7.7035,3.166,-116.3504733,558.91106,754.2465599,94.17181145,57508.27867,308.89205,0.263151897,0.056402408,0.481748925,0.481748925,-146.0983767,547.9246733
JVASP-21389,Sr3CuPtO6,15,C2/c,monoclinic,3D,0.0057,na,-93.28839333,214.9102967,398.178004,448.2006205,10965.29857,11398.56233,0.138057236,0.17103037,0.022267217,0.022267217,-3.66491997,-5.44957644
JVASP-21400,Y2Be2SiO7,113,P-42_1m,tetragonal,3D,5.4188,na,-196.2251433,458.8119967,778.274627,291.8755463,19501.59667,1387.7397,0.37101174,0.173860667,0.865797098,0.865797098,-153.0368467,452.5886267
JVASP-21407,K2NaInF6,225,Fm-3m,cubic,3D,5.569,na,-154.04488,516.86628,946.9890393,570.4922281,39907.12267,2135.4693,0.385641652,0.33804554,0.703108903,0.703108903,-143.85573,514.17538
JVASP-21417,Sr3ZnIrO6,167,R-3c,trigonal,3D,1.9998,na,21.093446,20.210131,70.65266372,61.61015192,184232.0633,185229.46,0.012000313,0.010753536,3.48E-05,3.48E-05,48.47539333,46.49808333