JID,Composition,Spg.numb.,Spg.symb.,Cryst.,Dimensionality,OPT SCF gap, MBJ gap,n-Seebeck,p-Seebeck,n-powerfact,p-powerfact,n-cond,p-cond,n-ZT,p-ZT,Avg.elec.mass,Avg.hole mass,n-mp-Seeb,p-mp-Seeb
JVASP-26874,Dy3CuGeSe7,173,P6_3,hexagonal,3D,1.0821,na,-181.7924733,272.5438933,1072.933216,1160.147398,32411.71167,18392.3416,0.497418185,0.606054507,0.611267558,0.611267558,-163.26433,273.4213533
JVASP-26876,CeH2,225,Fm-3m,cubic,3D,0.03,na,54.757999,54.607288,3110.41264,3106.75364,1037344.167,1041850.967,0.120181638,0.119610195,3.08E-06,3.08E-06,44.896832,44.823729
JVASP-26877,PaH3,223,Pm-3n,cubic,0D,0.0023,na,23.486842,23.438878,187.6946603,187.5949826,340253.55,341466.09,0.019085313,0.019061434,8.54E-06,8.54E-06,15.814502,15.429634
JVASP-26879,BaYFeCuO5,99,P4mm,tetragonal,3D,0.0016,na,45.17084453,49.74181193,168.8957816,214.1450006,1851557.223,1857874.088,0.041555506,0.060239233,6.89E-05,6.89E-05,-28.445727,-27.801249
JVASP-26880,Tb(Ni2P)2,136,P4_2/mnm,tetragonal,3D,0.0006,na,-23.330738,-22.381218,741.8215821,689.7027962,1301981.213,1295523.62,0.017659374,0.016319126,2.71E-06,2.71E-06,-22.96740867,-21.89775167
JVASP-26881,Zr(Ni2P)2,136,P4_2/mnm,tetragonal,3D,0.0068,na,-24.579241,-25.19967527,1105.150552,1153.48013,1785207.567,1776452.7,0.034339656,0.035939315,1.58E-06,1.58E-06,-22.58127113,-23.1942128
JVASP-26894,Lu4Ge6Ru7,229,Im-3m,cubic,3D,0.0339,na,-3.9378531,-3.232387333,13.28216491,8.934342108,856544.3333,855097.7933,0.000536738,0.000360389,3.52E-06,3.52E-06,na,na
JVASP-26896,U4As6Ru7,229,Im-3m,cubic,3D,0.0024,na,-30.078158,-30.716512,633.8140963,656.8438948,700582.72,696174.9167,0.040202286,0.041780743,3.96E-06,3.96E-06,na,na
JVASP-26908,Ho4NiB14,128,P4/mnc,tetragonal,3D,0.0114,na,-21.89006847,-8.591755333,315.5145452,128.6255349,599507.9333,592961.2467,0.014876316,0.005369622,6.96E-06,6.96E-06,na,na
JVASP-26910,NClO,62,Pnma,orthorhombic,2D,1.7655,na,-418.56185,440.06639,1674.695621,1516.218721,9248.223233,7462.264,0.902706652,0.83011603,4.652088584,4.652088584,-470.2293167,477.32961
JVASP-26915,TlIn5S6,11,P2_1/m,monoclinic,3D,0.9626,na,-158.1846133,134.7212567,1025.440503,491.8865833,32475.90597,24420.2556,0.382333418,0.215705512,1.308468068,1.308468068,-115.320358,157.5383367
JVASP-26919,K2NaInSb2,64,Cmce,orthorhombic,3D,0.137,na,-152.8772967,278.8618233,1197.953089,1734.295494,52367.78033,26037.359,0.406767602,0.796565969,0.184033027,0.184033027,-136.0945633,274.49692
JVASP-26926,ReH8(Br3N)2,225,Fm-3m,cubic,0D,0.6979,na,-295.58701,321.27844,1351.849909,1656.336882,15472.40367,16046.69167,0.73257909,0.895007848,1.380014355,1.380014355,na,na
JVASP-26934,NiPS,198,P2_13,cubic,3D,0.0027,na,25.462916,25.618341,1028.185188,1054.158262,1585824.3,1606215.5,0.024518858,0.025423942,1.69E-06,1.69E-06,14.526559,14.410986
JVASP-26937,K2Sn(HO)6,148,R-3,trigonal,3D,3.8714,5.7387,-118.85132,462.8418067,773.4933043,531.8628263,54768.47833,2486.956267,0.276020427,0.314779796,0.486027472,0.486027472,-113.64063,471.64356
JVASP-26940,Nd2Fe12P7,174,P-6,hexagonal,3D,0.0054,na,21.167711,21.33281633,162.3128272,155.2696201,310614.96,312192.8807,0.012708409,0.012514689,3.55E-05,3.55E-05,na,na
JVASP-26946,RbLi(H2N)2,62,Pnma,orthorhombic,3D,2.7343,na,-96.37372033,379.1616933,554.7321253,528.3707917,60318.898,4246.01637,0.187642657,0.30504884,0.358176784,0.358176784,-127.1863033,363.3704667
JVASP-26949,Tb2Ti3Si4,92,P4_12_12,tetragonal,3D,0.0033,na,-13.02811598,-12.45182245,99.33232691,88.71028979,308797.3767,307371.1433,0.007849978,0.007005637,1.05E-05,1.05E-05,-18.146041,-17.22476067
JVASP-26950,Ho2Ti3Si4,92,P4_12_12,tetragonal,3D,0.0048,na,-18.21807887,-17.649789,164.626453,150.2538554,324129.46,322069.7833,0.012587418,0.011509769,1.01E-05,1.01E-05,-22.87795567,-22.12209967
JVASP-26951,Er2Ti3Si4,92,P4_12_12,tetragonal,3D,0.0018,na,-20.00801537,-19.44917313,195.9387474,179.848067,330698.2367,328383.9633,0.01479376,0.013614097,9.92E-06,9.92E-06,-24.47598367,-23.76887067
JVASP-26952,Ca2InN,63,Cmcm,orthorhombic,3D,0.0027,na,29.6539993,28.6711205,169.7961816,156.1680911,1387457.777,1396782.043,0.04545727,0.043051764,1.70E-05,1.70E-05,39.64040827,37.14181849
JVASP-26957,Sc(Fe2P)2,136,P4_2/mnm,tetragonal,3D,0.0007,na,3.292854,3.407501,150.8749246,155.0313173,888683.8333,887965.3867,0.005795249,0.005980477,4.06E-06,4.06E-06,-15.15366113,-15.03813267
JVASP-26958,DyNiSn,62,Pnma,orthorhombic,3D,0.0073,na,6.438246233,6.354027367,157.7994651,159.2164708,1862069.1,1864862.633,0.004381231,0.004376269,1.75E-06,1.75E-06,5.426327567,5.413710133
JVASP-26961,Sc5Pb3,193,P6_3/mcm,hexagonal,3D,0.0085,na,-50.28471067,-50.94689267,901.6791519,905.0149642,365180.7567,356585.9267,0.089548692,0.090833506,8.00E-06,8.00E-06,-48.088436,-48.469872
JVASP-26964,Nd12Co6Sn,204,Im3,cubic,3D,0.0047,na,-34.61826767,-28.670128,388.6199414,260.8338541,324275.71,317325.2967,0.030379819,0.020315407,1.12E-05,1.12E-05,-30.003293,-26.08942
JVASP-26974,CeAgSb2,129,P4/nmm,tetragonal,3D,0.0002,na,59.01321133,58.765444,6904.317843,6900.004877,1047157.594,1066851.991,0.193282813,0.190920345,1.60E-05,1.60E-05,64.99075917,64.31563757
JVASP-26975,FeCuO2,166,R-3m,trigonal,3D,0.05,0.1847,27.47570233,27.555231,409.6952367,415.3432296,506485.5467,508537.38,0.028749435,0.02912421,5.97E-06,5.97E-06,na,na
JVASP-26976,Pb3SeO5,36,Cmc2_1,orthorhombic,2D,2.6356,na,-223.2613967,317.7785333,1271.0092,783.0851748,24805.825,7699.0816,0.548434028,0.441315666,0.540603496,0.540603496,-109.38471,348.3175267
JVASP-26986,Fe2P2O7,14,P2_1/c,monoclinic,3D,0.0037,na,58.93739633,62.43811767,144.4033591,147.8006945,28854.53273,29699.47177,0.054110096,0.05602671,0.000663193,0.000663193,38.93847267,45.55382733
JVASP-26991,CeBRh3,221,Pm-3m,cubic,3D,0.0007,na,48.484798,49.418757,1383.775193,1470.509477,588646.22,602121.58,0.071887439,0.07577287,6.72E-06,6.72E-06,80.341651,80.831587
JVASP-26997,TiSiNi,62,Pnma,orthorhombic,3D,0.0108,0.067,-56.34180233,-42.5515224,827.0830824,544.6770644,184908.5033,177009.2067,0.082394166,0.055189292,2.45E-05,2.45E-05,-32.22377697,-17.722755
JVASP-27000,In3Pd2,164,P-3m1,trigonal,3D,0.0004,na,6.243007833,6.159830067,215.3531115,210.6831394,5810174.533,5839687.333,0.001644234,0.001603866,5.08E-07,5.08E-07,4.4755213,4.604982833
JVASP-27002,YInPt2,194,P6_3/mmc,hexagonal,3D,0.0052,na,-9.798814933,-9.954915467,452.5903883,462.4734773,4304613.433,4280888.9,0.004103354,0.004212082,6.63E-07,6.63E-07,-5.3904467,-5.560871
JVASP-27004,Zr(MoO4)2,164,P-3m1,trigonal,2D,3.1714,3.7728,-270.8637567,459.16194,2177.074529,721.9232731,24510.96513,3423.950533,0.975670584,0.42244624,2.60040203,2.60040203,-260.0406833,445.9083267
JVASP-27009,Er(Ni2As)2,136,P4_2/mnm,tetragonal,3D,0.0053,na,-24.24776067,-23.33963433,954.4162893,901.8710322,1598708.333,1587605.133,0.02038831,0.019018352,2.19E-06,2.19E-06,na,na
JVASP-27010,Ca(Ni2Sn)2,140,I4/mcm,tetragonal,3D,0.0045,na,-19.70591233,-19.86661167,1192.174532,1192.394695,2086976.633,2067825.967,0.018610821,0.018756594,1.46E-06,1.46E-06,na,na
JVASP-27011,Ta3Al2CoC,227,Fd-3m,cubic,3D,0.0124,na,7.971008433,6.075849733,54.74604845,31.93675507,861640.77,865120.77,0.002953694,0.001724332,2.94E-06,2.94E-06,7.9651905,6.6901305
JVASP-27016,Nd5Sn3,193,P6_3/mcm,hexagonal,3D,0.0032,na,-21.262924,-20.52920933,420.9498077,397.3368589,566352.4633,559720.8567,0.019960987,0.018828594,5.76E-06,5.76E-06,-22.38069267,-21.441205
JVASP-27023,Y4Ga12Pt,229,Im-3m,cubic,3D,0.0018,na,6.852288833,10.550737,111.4470158,267.29558,2373543.1,2401188.1,0.001572767,0.003793307,1.27E-06,1.27E-06,6.4453099,10.916113
JVASP-27028,NdIn5Rh,123,P4/mmm,tetragonal,3D,0.0032,na,-0.887068333,-0.459218867,244.7443181,235.8399381,4808649.2,4802721,0.002158211,0.002130254,6.09E-07,6.09E-07,na,na
JVASP-27032,USb2Au,129,P4/nmm,tetragonal,3D,0.0017,0.0003,19.61985933,19.33519667,232.5374739,232.0269397,505723.22,507749.39,0.014418376,0.014151608,6.82E-06,6.82E-06,40.25657467,40.832064
JVASP-27040,MnCuO2,12,C2/m,monoclinic,3D,0.0022,na,-91.50424733,-45.210641,1127.104333,387.8775805,95993.312,84717.521,0.163545742,0.054927072,5.17E-05,5.17E-05,na,na
JVASP-27047,Fe3Mo3N,227,Fd-3m,cubic,3D,0.0011,na,1.877277967,1.4393359,2.755683225,1.621147162,781937.6533,782524.8267,0.000152173,8.97E-05,3.44E-06,3.44E-06,na,na
JVASP-27048,SrFeO3,221,Pm-3m,cubic,3D,0.0105,na,-1.9402301,-1.261692,13.98828244,5.924052023,3715847.8,3721449.8,0.000147708,6.33E-05,8.32E-07,8.32E-07,-5.6662945,-5.9174709
JVASP-27049,CrCuO2,166,R-3m,trigonal,3D,1.0478,na,-296.3288033,383.013,2974.928281,1205.141874,33904.73033,8712.433033,1.250127087,0.668449386,0.746333509,0.746333509,na,na
JVASP-27052,TlPPbS4,62,Pnma,orthorhombic,3D,1.995,na,-224.6336233,356.2737533,1155.661555,1161.929719,23281.39,9505.93,0.532928225,0.624699126,0.959630047,0.959630047,-275.75069,349.17642
JVASP-27055,VBiPbO5,2,P-1,triclinic,3D,2.6118,2.8849,-335.34329,334.3858833,642.0875224,664.3631148,5716.862167,6136.794433,0.368477391,0.381605071,3.836614161,3.836614161,-378.4857433,378.3640333
JVASP-27058,DyAgPb,186,P6_3mc,hexagonal,3D,0.0152,na,-26.79814033,-25.176812,522.1573088,460.4949689,809457.7,764945.9,0.025314727,0.021755283,4.20E-06,4.20E-06,-25.27353633,-24.67482267
JVASP-27059,HoCoSi,62,Pnma,orthorhombic,3D,0.0082,0.0049,-15.21435763,-16.06635803,366.1786866,373.2475302,708792.6533,702986.7467,0.013191168,0.013713413,4.36E-06,4.36E-06,-16.68711247,-17.02520953
JVASP-27060,Hf5Sn4,193,P6_3/mcm,hexagonal,3D,0.002,na,-1.459912833,-1.829499267,44.83721588,65.70505625,1359760.267,1358102.167,0.001272357,0.001861129,2.23E-06,2.23E-06,0.273357233,-0.302184067
JVASP-27065,K3Mn2O8,11,P2_1/m,monoclinic,3D,0.0016,na,-2.9599761,-2.821924667,4.589282538,4.265683711,28242.08167,28397.801,0.001899864,0.001786144,0.000135923,0.000135923,na,na
JVASP-27075,LiAl5O8,212,P4_332,cubic,3D,5.7675,na,-89.231481,477.2025,553.1253319,308.6575289,69468.408,1355.4124,0.175721072,0.183434594,0.320864075,0.320864075,-95.787021,504.48762
JVASP-27139,MgVO3,63,Cmcm,orthorhombic,3D,1.0206,na,-332.5603567,400.28688,721.9664465,266.1613458,6292.251367,1513.81519,0.402668911,0.156888999,8.229647667,8.229647667,-347.4069033,397.10253
JVASP-27144,K2PdO2,71,Immm,orthorhombic,2D,1.4642,1.556,-409.3893233,390.4025,1292.798006,2228.001798,7178.9187,16200.83127,0.725679683,0.97026503,39.94793523,39.94793523,-403.64654,408.8179167
JVASP-27155,KTa(GeO3)3,188,P-6c2,hexagonal,3D,3.5413,na,-116.2232203,356.8507,896.7896329,1080.298264,47632.12233,8050.098733,0.25656673,0.5955836,0.47621027,0.47621027,-146.24247,376.2852
JVASP-27156,RbTa(GeO3)3,188,P-6c2,hexagonal,3D,3.5141,na,-110.5383913,353.0281567,838.5988017,1189.823109,47439,8600.797167,0.237118591,0.643876401,0.426261754,0.426261754,-144.98196,376.0214867
JVASP-27158,TaTl(GeO3)3,188,P-6c2,hexagonal,3D,3.6539,na,-234.00646,398.14843,1739.954391,567.214598,22225.6002,3573.835367,0.723357499,0.331712741,1.329489962,1.329489962,-276.29776,416.93026
JVASP-27159,BaSn(GeO3)3,188,P-6c2,hexagonal,3D,2.8735,na,-91.882754,356.9680033,643.1716539,543.970607,78677.79667,4448.187233,0.187826648,0.315684807,0.373073566,0.373073566,-108.6396733,362.7391133
JVASP-27170,MnH4(ClO)2,12,C2/m,monoclinic,1D,1.6621,0.0062,-291.9418733,339.6052233,873.0657071,954.1986595,8696.418297,9586.6302,0.455285665,0.524325022,27.23037666,27.23037666,na,na
JVASP-27195,OsO4,2,P-1,triclinic,3D,3.153,3.5597,-409.3607633,459.85254,699.1236779,321.6221807,3671.307133,1444.637107,0.402499261,0.190267541,6.526709218,6.526709218,na,na
JVASP-27196,Rb2Ti6O13,12,C2/m,monoclinic,3D,2.6992,na,-414.2884667,400.4702233,354.141344,618.0801943,1965.239567,4181.488313,0.208148224,0.349648965,11.38539699,11.38539699,-400.5701067,405.4633733
JVASP-27204,Zr2Fe12P7,174,P-6,hexagonal,3D,0.0147,na,40.76919167,42.15681,336.1139146,341.7331392,264623.3463,267276.7847,0.030149351,0.031825144,8.22E-05,8.22E-05,na,na
JVASP-27208,Ba2UFeO6,225,Fm-3m,cubic,3D,0.6188,na,158.20516,154.2224,4358.317975,4342.316111,174131.6133,182568.7833,1.055647587,1.023841915,2.48E-05,2.48E-05,126.05132,123.37239
JVASP-27213,Ni2Hg2OF6,227,Fd-3m,cubic,3D,0.0268,na,-68.19516467,-61.42164167,640.6353974,455.2486378,137753.8567,120671.8067,0.108501962,0.075979188,4.10E-05,4.10E-05,-38.009007,-38.781744
JVASP-27230,YAlGeO5,55,Pbam,orthorhombic,3D,3.9603,na,-137.7047433,426.1587733,812.4344608,464.6851394,42879.599,2635.585447,0.324409274,0.274794261,0.588062069,0.588062069,-116.8291667,435.6625667
JVASP-27231,As3Ir,204,Im3,cubic,3D,0.1151,na,-157.00609,42.54844033,1445.532595,212.2894875,58640.12567,117263.0533,0.429949079,0.046479429,0.000377244,0.000377244,na,na
JVASP-27233,NbTeI3,13,P2/c,monoclinic,1D,0.0199,na,-272.15827,273.5965733,793.5869173,664.8271437,11334.29313,9551.354267,0.432459787,0.365180932,0.569466934,0.569466934,-273.0857267,284.7000667
JVASP-27242,Ba3SrTa2O9,176,P6_3/m,hexagonal,3D,4.0465,na,-294.21716,438.0643467,795.7599527,226.8703482,9440.260567,1218.946013,0.435330471,0.135077278,1.736830343,1.736830343,-304.8705833,435.4494933
JVASP-27255,NdGeBO5,14,P2_1/c,monoclinic,3D,4.1201,na,-110.6575633,443.9865533,718.6913137,338.2431433,57510.88633,1859.156563,0.239053126,0.199338942,0.453857911,0.453857911,-132.8125733,445.1473533
JVASP-27256,FeTeCl7,1,P1,triclinic,0D,1.1574,na,-341.12103,349.9672733,57.31463879,117.355276,493.0456067,974.4203,0.034352904,0.069942322,30.74193465,30.74193465,-333.0877867,323.6485167
JVASP-27257,FeTeBr7,1,P1,triclinic,2D,0.9056,na,-322.1871567,332.6167967,101.6824962,274.461629,976.9839267,2503.9538,0.060827517,0.162325137,15.14259476,15.14259476,-320.5594767,347.0431867
JVASP-27264,TiI4,15,C2/c,monoclinic,1D,0.8845,0.9484,-396.14862,257.2041,344.6014555,928.6965243,2483.0744,13952.74333,0.203673453,0.467184237,22.51159805,22.51159805,-427.9642233,356.79997
JVASP-27266,MnCr2O4,227,Fd-3m,cubic,3D,0.022,na,-216.92816,488.61253,1134.747254,876.2656119,24113.89,3670.3423,0.528709678,0.506890706,0.963202884,0.963202884,26.368115,26.179365
JVASP-27269,Y2Be2GeO7,113,P-42_1m,tetragonal,3D,4.7547,na,-124.6858067,449.7969533,680.2453213,418.7087017,42317.749,2083.065233,0.264355126,0.24872419,0.513465638,0.513465638,-125.7904133,454.3760833
JVASP-27271,ZrAlPd2,225,Fm-3m,cubic,3D,0.0423,na,2.6435392,2.7336165,30.71837331,32.87553782,4395686.433,4399442.967,0.000277786,0.000297,6.45E-07,6.45E-07,na,na
JVASP-27278,Mg2B4Ru5,55,Pbam,orthorhombic,3D,0.0022,na,8.405826333,8.013902533,1326.536793,1282.390783,1784014.863,1796254.227,0.019564116,0.018793564,2.00E-06,2.00E-06,7.0697075,6.694573567
JVASP-27279,SmSI,166,R-3m,trigonal,2D,2.4018,na,-307.6457967,206.5721433,1400.133855,875.5136847,15110.22243,21264.91967,0.707491442,0.415891446,19.08081915,19.08081915,-281.63615,243.8471167
JVASP-27283,Ta2Hg3S(O2F5)2,43,Fdd2,orthorhombic,1D,2.5838,na,-240.7171133,279.1660867,1910.497318,950.0091982,30111.59767,11566.18467,0.858774726,0.52860713,0.773734617,0.773734617,na,na
JVASP-27287,Nb2Se9,2,P-1,triclinic,1D,0.6662,na,-290.4037,328.51235,1517.435309,366.9360682,15432.8807,3362.297633,0.661743918,0.213259281,2.764459461,2.764459461,-302.1194667,329.1533
JVASP-27330,Rb2Na4Co2O5,136,P4_2/mnm,tetragonal,3D,0.0192,na,-79.12288027,-70.95982533,136.7067105,131.8128765,4286.2013,3956.006067,0.079403037,0.076818964,0.004157823,0.004157823,-118.147948,-106.0047513
JVASP-27332,UH3,223,Pm-3n,cubic,0D,0.0015,na,34.409848,34.46865,259.8058724,262.1072409,219423.66,220612.68,0.036434924,0.036824816,1.46E-05,1.46E-05,43.93697,43.974374
JVASP-27337,Rb3ZnBr5,62,Pnma,orthorhombic,3D,3.6991,na,-80.59519633,364.93939,408.0441861,158.3892967,62960.32567,1364.347707,0.135771061,0.094297938,0.285754164,0.285754164,-110.7001633,384.0807567
JVASP-27339,CeSiOs,129,P4/nmm,tetragonal,3D,0.0006,na,43.62862233,43.92510167,1163.305659,1190.75038,593512.4967,597737.8633,0.070711959,0.071823128,5.45E-06,5.45E-06,57.715963,58.49650933
JVASP-27343,USb2Ru,129,P4/nmm,tetragonal,3D,0.0037,0.0007,27.460493,27.660199,433.1548608,441.96853,588134,591198.6733,0.026475016,0.0269382,5.18E-06,5.18E-06,12.359329,11.90816067
JVASP-27369,Np(SiPt)2,129,P4/nmm,tetragonal,3D,0.0072,na,-21.35596607,-21.204326,422.8868843,411.3469016,637287.92,635821.4233,0.01618126,0.015837986,6.28E-06,6.28E-06,na,na
JVASP-27401,NbSbRu,216,F-43m,cubic,3D,0.4191,0.4203,-161.23673,329.12667,1871.056424,3894.121035,71971.22933,35948.70867,0.595143764,1.593582229,0.064340242,0.064340242,-163.79958,329.67924
JVASP-30809,Al5W,182,P6_322,hexagonal,3D,0.0018,na,-3.307654237,-3.284058623,93.93005188,89.57197165,2815219.467,2807808.933,0.001829651,0.001770361,1.06E-06,1.06E-06,-3.79993108,-3.815458423
JVASP-30830,Be2Cr,194,P6_3/mmc,hexagonal,3D,0.0075,na,24.51997067,25.28471233,1032.068043,1131.134763,1384138.7,1398619.2,0.020451104,0.022284872,2.24E-06,2.24E-06,21.750452,22.52224067
JVASP-30832,Be17Nb2,166,R-3m,trigonal,3D,0.0073,na,6.9892292,5.854830467,206.0340674,154.2631595,3371494.533,3384962.367,0.002970611,0.002220706,8.09E-07,8.09E-07,8.056713867,6.883576433
JVASP-30865,Dy5Sn3,193,P6_3/mcm,hexagonal,3D,0.0089,na,-51.80476167,-53.47086733,1467.023187,1508.145405,563551.6333,541561.62,0.105105789,0.109472882,5.39E-06,5.39E-06,-47.179533,-47.61943433
JVASP-30879,Ti2Ga3,83,P4/m,tetragonal,3D,0.0095,0.0381,8.632957667,7.909499933,579.1390215,567.133884,1792957.6,1796812.4,0.017647213,0.017156455,1.56E-06,1.56E-06,3.614381067,2.9059736
JVASP-30882,Zr3Ga2,127,P4/mbm,tetragonal,3D,0.0065,na,-25.14950633,-25.489777,1747.600123,1761.363596,2366151.4,2349668.567,0.028115741,0.028637081,1.20E-06,1.20E-06,-19.83597367,-20.04201433
JVASP-30883,Zr2Ga3,43,Fdd2,orthorhombic,3D,0.0179,0.0191,12.11642155,11.84607894,421.8068435,396.1742339,1884636.733,1894489.267,0.012999597,0.012293674,1.73E-06,1.73E-06,10.47578897,10.2813366
JVASP-30894,Ho5Pb3,193,P6_3/mcm,hexagonal,3D,0.0157,na,-46.992786,-48.56282633,1190.936475,1246.548234,531366.9767,512112.0867,0.085863474,0.091166288,5.98E-06,5.98E-06,-43.293365,-44.062936
JVASP-30910,SrMgSn,62,Pnma,orthorhombic,3D,0.0228,na,-104.6826623,29.442415,1783.315226,166.9844638,116682.5847,91047.70567,0.228073014,0.028112487,5.65E-05,5.65E-05,-69.97731667,3.857084667
JVASP-30913,Ho3(AlNi3)2,229,Im-3m,cubic,3D,0.0043,na,0.607267313,1.4016883,0.322894781,1.720233151,875590.85,875556.9833,1.30E-05,6.92E-05,3.51E-06,3.51E-06,0.74607319,1.3439465
JVASP-30920,Ti2Pd3,63,Cmcm,orthorhombic,3D,0.0008,na,20.74939427,21.33657093,809.1343538,854.6967263,1281138.8,1288914.133,0.02037394,0.021470232,2.36E-06,2.36E-06,23.3951216,23.65021583
JVASP-30923,Sn3Pt2,194,P6_3/mmc,hexagonal,3D,0.0047,na,-6.510320933,-7.015466,547.7195299,529.0899983,5632900.2,5619405.933,0.007597598,0.007530293,6.03E-07,6.03E-07,-3.949919033,-4.154890733
JVASP-30932,TiZn2,194,P6_3/mmc,hexagonal,3D,0.004,na,18.1298889,18.497582,494.0415468,498.4983296,1218062.593,1226100.17,0.014608855,0.014702299,2.52E-06,2.52E-06,23.33443333,23.3107326
JVASP-30934,Ba4Bi3,220,I-43d,cubic,3D,0.07,na,1.859935767,-1.255930467,1.509759548,0.687693679,436427.2833,435977.2633,0.000155791,7.03E-05,5.71E-06,5.71E-06,-4.6546163,-8.2160446
JVASP-30935,Sr4Bi3,220,I-43d,cubic,3D,0.0908,na,-13.241792,-17.587063,89.77036586,156.6218804,511964.0567,506367.4667,0.008859364,0.015614765,4.89E-06,4.89E-06,-12.497767,-16.98147
JVASP-30975,H5NF2,53,Pmna,orthorhombic,0D,7.1885,na,-90.856925,530.3318133,599.3721252,143.2327974,74346.013,510.3672067,0.177986314,0.085680348,0.364390914,0.364390914,-136.6785367,514.64109
JVASP-30980,B6H10N,202,Fm3,cubic,0D,5.7187,na,-160.72601,532.66861,983.4791971,206.0162752,38070.87433,726.08476,0.413781909,0.122692597,0.777716242,0.777716242,-141.11091,495.38592
JVASP-30988,Er2Pd2Pb,127,P4/mbm,tetragonal,3D,0.0011,na,11.19804383,10.109504,366.1321879,299.6222156,3296627.633,3317752.967,0.006580648,0.005219152,9.23E-07,9.23E-07,13.96745867,13.3808532
JVASP-30989,Er2FeSi2,12,C2/m,monoclinic,3D,0.0008,na,-15.6939003,-15.21401743,566.7052651,552.7534382,546052.3967,542610.3,0.036511355,0.03577541,6.28E-06,6.28E-06,-15.9709014,-15.7354962
JVASP-30990,KAlH4,62,Pnma,orthorhombic,3D,5.0563,6.8464,-209.26106,358.5189867,814.7941154,1114.553801,17070.037,8896.450833,0.396044626,0.633926826,0.932529441,0.932529441,-209.8049933,375.6925533