JID,Composition,Spg.numb.,Spg.symb.,Cryst.,Dimensionality,OPT SCF gap, MBJ gap,n-Seebeck,p-Seebeck,n-powerfact,p-powerfact,n-cond,p-cond,n-ZT,p-ZT,Avg.elec.mass,Avg.hole mass,n-mp-Seeb,p-mp-Seeb
JVASP-3999,Na4HgP2,166,R-3m,trigonal,3D,0.9422,1.8677,-247.74687,339.4227267,3167.08646,2055.083872,51619.67633,17765.63833,1.238695022,1.051389427,0.500300008,0.500300008,-182.67068,333.1480967
JVASP-2988,LiBeAs,129,P4/nmm,tetragonal,3D,1.217,na,-169.9984433,231.93259,1782.477561,4346.841815,71860.46183,78343.82767,0.437010087,1.356423975,1.184381304,1.184381304,-160.2727733,233.6843367
JVASP-3321,Zn(GaTe2)2,82,I-4,tetragonal,3D,0.9904,1.7413,-187.10335,260.43888,2833.413832,2442.446789,80722.55467,35961.55133,0.809184584,0.997575176,0.214308244,0.214308244,-165.8724533,287.1525767
JVASP-3891,TiBrN,59,Pmmn,orthorhombic,2D,0.2816,na,-132.2102933,210.4717733,1179.092694,1297.104522,56005.41721,62902.47485,0.388209481,0.376905275,118.1109045,118.1109045,-132.4605133,214.99517
JVASP-3924,U(OF)2,166,R-3m,trigonal,2D,2.2888,2.2671,-624.1378267,382.28466,87.77845974,888.2154922,228.873736,6197.1877,0.052363445,0.503346423,40670.2669,40670.2669,-528.6527167,367.98339
JVASP-3705,SrHCl,129,P4/nmm,tetragonal,3D,3.9806,5.2881,-141.38793,436.57896,991.3970669,731.2599845,49155.334,3653.358233,0.372252164,0.424734112,0.671124656,0.671124656,-140.65424,431.84647
JVASP-2520,Ca(CdAs)2,164,P-3m1,trigonal,3D,0.0371,1.1421,-60.473917,208.7028633,750.1335618,2133.732491,160979.5777,48913.102,0.11977341,0.791400815,0.048579951,0.048579951,-65.85880567,213.0679767
JVASP-2193,Sb2Os,58,Pnnm,orthorhombic,3D,0.0419,0.6265,-267.8755067,324.8035167,2674.788575,3431.990416,37805.113,32831.41433,1.038942738,1.418336497,0.111727457,0.111727457,-259.9481267,304.1446833
JVASP-7066,Al2S3,169,P6_1,hexagonal,3D,3.1308,na,-214.6954,280.1527733,1628.065309,526.8693019,34898.27367,6768.697933,0.69337949,0.296807528,0.553420072,0.553420072,-218.52157,304.3455067
JVASP-1759,N2,194,P6_3/mmc,hexagonal,3D,2.3402,0.0011,-350.78546,502.6866333,1654.917769,585.1317034,13263.916,2300.356067,0.858442799,0.344041733,1.936927358,1.936927358,-245.64034,358.8352033
JVASP-3909,Sn(SbTe2)2,166,R-3m,trigonal,2D,0.0325,na,-218.1524067,199.0543067,4543.058539,4134.540033,99139.74267,107035.5013,1.045622713,1.036458561,0.027115578,0.027115578,-196.50392,213.6860333
JVASP-1297,Na2Se,225,Fm-3m,cubic,3D,2.1726,3.9328,-73.53229067,465.33501,489.125073,2172.757834,90461.48967,10034.13333,0.132560138,1.192263508,0.256089524,0.256089524,-70.40361,449.8226
JVASP-2178,NaS,194,P6_3/mmc,hexagonal,3D,1.2785,2.7567,-122.89064,354.0726333,878.7865064,2031.086718,55549.41533,17203.75053,0.278659302,0.987404969,0.511001191,0.511001191,-140.9302367,388.1882267
JVASP-2379,Pr2SeO2,164,P-3m1,trigonal,3D,2.3229,3.6182,-197.30954,268.2231833,1587.233457,1982.280029,41104.701,25802.80953,0.646287689,0.883684118,0.652656529,0.652656529,-198.9231567,266.6518133
JVASP-2295,GaCuTe2,122,I-42d,tetragonal,3D,0.4234,na,-137.0403167,253.2898433,2286.7752,3245.840264,121462.5433,50589.43133,0.424517063,1.204717082,0.005429114,0.005429114,-139.80822,252.9813833
JVASP-2457,NbCu3S4,215,P-43m,cubic,3D,1.6401,1.5681,-294.50906,306.11916,1932.679806,2058.022155,22282.432,21961.855,0.977993828,1.006368452,1.119335453,1.119335453,-322.7244,309.95216
JVASP-2325,Rb2Pt3S4,69,Fmmm,orthorhombic,3D,1.4204,1.7535,-305.7042833,268.1786467,2046.295083,835.3818049,23278.72767,11777.74867,1.028725202,0.450041905,1.554924132,1.554924132,-310.89566,308.7232367
JVASP-2994,Ca(MgSb)2,164,P-3m1,trigonal,3D,0.9012,1.2267,-212.3848267,175.44074,3637.783029,1422.302582,79482.27867,48182.33533,1.041057481,0.502041023,0.579994454,0.579994454,-205.4979,184.16057
JVASP-2592,TaTl3S4,217,I-43m,cubic,3D,2.6544,3.203,-325.38275,341.6312,2248.217884,2564.1008,21234.85733,21969.49333,1.059624129,1.278046932,1.07504216,1.07504216,-343.36086,390.56534
JVASP-3120,TaTl3Se4,217,I-43m,cubic,3D,2.2367,2.6101,-389.8254733,345.48228,3258.097347,3194.989024,21439.943,26768.11667,1.680647504,1.567231935,1.211581764,1.211581764,-385.47245,383.08981
JVASP-1564,KLaO2,166,R-3m,trigonal,3D,3.7926,na,-268.3341967,486.71705,2374.823395,1386.591409,32977.956,5816.651367,1.03631389,0.787620008,0.843629196,0.843629196,-292.1159767,482.3600033
JVASP-3192,KAg2PS4,121,I-42m,tetragonal,3D,1.0573,2.3727,-74.39906967,176.99674,490.6200426,1260.240048,90277.19567,40610.80333,0.13414667,0.460392698,0.291430097,0.291430097,-72.15668333,266.1264633
JVASP-1225,Bi2O3,14,P2_1/c,monoclinic,3D,2.1894,3.3978,-245.86976,319.20422,1909.521492,1207.120687,31408.05333,10802.37473,0.802730732,0.629047587,0.884682043,0.884682043,-258.7672767,314.4002733
JVASP-2679,CaPdF6,148,R-3,trigonal,3D,2.17,1.9404,-452.4440967,533.0484533,274.9578957,288.0605771,1343.1136,1048.53645,0.164507954,0.171950159,9.84538833,9.84538833,-480.0924467,489.2413867
JVASP-2409,Rb2HgO2,139,I4/mmm,tetragonal,3D,2.1976,3.191,-335.0494233,435.0716467,2427.227718,1191.107576,21612.46133,5973.577367,1.140210575,0.680282711,1.250088364,1.250088364,-189.72623,426.7664933
JVASP-2763,Ba(MgAs)2,164,P-3m1,trigonal,3D,1.152,1.6045,-241.40939,260.4041567,3688.138289,2499.453695,58429.769,36978.259,1.227452456,1.030062078,0.848287986,0.848287986,-221.95519,261.42214
JVASP-1843,LiHoSe2,166,R-3m,trigonal,3D,1.5991,2.2028,-212.8377933,261.09171,2735.745892,2047.218946,60330.03033,34686.87333,0.96389696,0.873443305,0.435348851,0.435348851,-214.9830267,266.07702
JVASP-2157,SbF3,40,Ama2,orthorhombic,2D,4.6264,6.566,-408.14072,312.3417333,3042.441171,1209.9458,17980.88067,12452.49033,1.561477498,0.641572993,1.657970578,1.657970578,-414.47261,268.9484633
JVASP-2340,Sr2PdO3,71,Immm,orthorhombic,3D,0.0121,0.0154,-201.58863,127.3953483,3324.092118,597.0530557,56718.94263,23084.9182,0.481327388,0.098000888,0.0341707,0.0341707,-193.2434367,124.6768537
JVASP-2835,Ba(AgS)2,164,P-3m1,trigonal,3D,0.9244,2.3651,-65.09656733,296.2684833,375.812932,2040.720741,88789.362,23305.88533,0.101567091,0.944180024,0.196203995,0.196203995,-59.78344267,304.76421
JVASP-3681,Ag2HgI4,82,I-4,tetragonal,3D,1.0657,2.1218,-90.17989233,298.1689033,515.0703504,2026.108334,61870.37067,22791.91967,0.158415507,0.974764906,0.232523367,0.232523367,-98.32045633,328.6667867
JVASP-4074,PI2,2,P-1,triclinic,0D,1.5941,2.3942,-297.0129467,276.5701867,1455.022434,1358.677446,15802.50793,17018.7123,0.728469846,0.660399607,1.456895542,1.456895542,-291.8737233,285.6609533
JVASP-3291,TbOF,166,R-3m,trigonal,3D,5.2119,7.0415,-352.92918,390.2514233,2038.226313,1558.825602,19484.46167,12257.48593,0.982085357,0.826399407,79.41963857,79.41963857,na,na
JVASP-1888,InHg,166,R-3m,trigonal,3D,0.0022,0.0048,-3.419034507,-3.50316016,387.9785374,395.2396406,13758946.33,13723663.33,0.001185608,0.001214593,2.05E-07,2.05E-07,na,na
JVASP-1549,RbTmO2,166,R-3m,trigonal,3D,3.7217,5.6248,-230.36405,454.5056,2486.920332,1829.941296,46887.17867,8850.831733,0.965419885,1.023705443,0.577322703,0.577322703,-241.4916267,446.05846
JVASP-1642,LiCuO2,12,C2/m,monoclinic,3D,0.0652,na,-229.7525137,265.78101,3046.450075,1366.410525,30426.447,13224.5237,1.013811444,0.523449469,0.026871218,0.026871218,-265.5929733,319.7967467
JVASP-1378,ScB2,191,P6/mmm,hexagonal,3D,0.0097,0.0102,-6.010655567,-6.124620633,223.9732348,231.1322886,5952130.2,5938072.4,0.001598721,0.001654951,4.70E-07,4.70E-07,-6.018145733,-6.1107572
JVASP-3753,VClO,59,Pmmn,orthorhombic,2D,0.0073,0.0005,-17.05030633,-18.027697,559.5949898,592.9583165,648776.6797,644423.4187,0.026622646,0.028379564,3.29E-05,3.29E-05,-3.339636333,-3.334319667
JVASP-2670,Al2CdTe4,82,I-4,tetragonal,3D,1.6687,2.5519,-132.1235733,338.2044433,1745.541053,2246.850927,102194.147,19622.57533,0.436380578,1.107961119,0.242276459,0.242276459,-124.6235867,351.6893033
JVASP-3249,Nd2SeO2,164,P-3m1,trigonal,3D,2.3139,3.6273,-196.1368767,266.4638667,1600.56388,2023.399951,41974.36067,26633.15803,0.648799866,0.89282059,0.649892506,0.649892506,-197.9229467,264.2358367
JVASP-3144,GaAgO2,194,P6_3/mmc,hexagonal,3D,0.7879,1.7602,-81.25953567,390.2187367,620.963769,3312.949768,96385.085,21575.995,0.152446416,1.615725919,0.322457424,0.322457424,-87.44036433,431.62662
JVASP-3792,IrBr3,12,C2/m,monoclinic,2D,1.4229,1.7041,-362.0932833,372.10574,1274.005971,1120.345406,9620.2311,8241.228467,0.702910599,0.631707227,1.903658925,1.903658925,-359.2838033,362.15749
JVASP-3333,Tb2TeO2,139,I4/mmm,tetragonal,3D,1.3522,2.0682,-319.9926867,302.8683533,1466.305376,4961.046432,14011.04043,51093.54067,0.738392878,1.754984047,46.77176886,46.77176886,-310.48313,287.94402
JVASP-1654,RbPrS2,166,R-3m,trigonal,3D,2.205,3.332,-245.3301233,316.8417867,2654.585866,1585.230726,43703.786,16145.9126,1.051965996,0.777705825,0.638255203,0.638255203,-243.60427,322.5097567
JVASP-1681,SrHfN2,166,R-3m,trigonal,3D,0.1624,1.478,-169.8465433,211.19004,2556.061599,1718.063089,88583.056,38924.197,0.739276535,0.665450064,0.106628999,0.106628999,-164.57394,207.1223567
JVASP-3468,Zn(InTe2)2,82,I-4,tetragonal,3D,0.7706,1.7741,-127.49398,260.5497667,1665.084771,2492.868581,97993.36333,36660.744,0.336535271,1.019041337,0.161427352,0.161427352,-121.40606,270.64146
JVASP-3897,RhBr3,12,C2/m,monoclinic,2D,1.1667,1.3161,-370.4670333,357.5133133,1136.35675,923.3907876,8395.035633,7307.933233,0.627727544,0.52199397,2.257837157,2.257837157,-382.5401333,373.5030833
JVASP-4038,KSb2,12,C2/m,monoclinic,3D,0.0316,0.8554,-107.421025,263.8862733,1349.040764,2775.991154,105992.7163,39944.36233,0.224725357,1.085526532,0.01369866,0.01369866,-109.018291,257.1725567
JVASP-2121,As2Ru,58,Pnnm,orthorhombic,3D,0.0886,0.6259,-275.8618033,349.8384333,2317.808428,3326.122778,30981.70267,27293.32333,0.971898421,1.498469227,0.413192499,0.413192499,-273.5314167,347.54355
JVASP-3447,PtPbF6,166,R-3m,trigonal,3D,1.9487,2.2363,-249.58352,421.1356867,1632.314127,1069.703879,26266.03833,6368.7881,0.738734654,0.610272421,0.877324596,0.877324596,-263.3956533,426.9783633
JVASP-1996,NaI,225,Fm-3m,cubic,3D,3.8506,5.6716,-77.72435167,410.96586,526.7893923,2354.292625,87201.269,13939.55633,0.147648193,1.219566327,0.300563041,0.300563041,-76.224916,409.44744
JVASP-1240,LiNbO3,161,R3c,trigonal,3D,3.339,2.6985,-415.7483567,448.3608467,2600.729502,1093.509248,15019.811,5475.997567,1.395520875,0.629217357,1.383224327,1.383224327,-430.0754933,457.40889
JVASP-1792,CuRhO2,166,R-3m,trigonal,3D,0.9062,0.7779,-293.20845,371.2576267,3708.008274,2185.326372,43161.55433,16394.49877,1.508317351,1.120123579,0.595446954,0.595446954,-280.5581767,408.5635967
JVASP-1354,TbCu,221,Pm-3m,cubic,3D,0.0043,na,9.7880906,9.6791161,549.9552101,540.5234832,5740257.3,5769566.3,0.00391517,0.003829035,4.89E-07,4.89E-07,9.806647,9.7057875
JVASP-3657,Rb2PtCl6,225,Fm-3m,cubic,3D,1.7163,2.2375,-250.313,414.53383,2055.191133,1524.795333,32800.87333,8873.4314,0.927793407,0.871908381,0.791247299,0.791247299,-266.23988,437.64679
JVASP-1423,AuSe,12,C2/m,monoclinic,2D,0.0326,0.0413,-37.335197,33.8492588,902.7075216,508.821781,179379.92,159213.71,0.089018275,0.076838089,4.33E-05,4.33E-05,-183.8752867,188.4267233
JVASP-1270,K2S,225,Fm-3m,cubic,3D,2.3843,4.9973,-102.51313,539.20554,714.4443356,612.3939404,67984.422,2106.309533,0.230781146,0.363259923,0.395199992,0.395199992,-97.608742,555.13769
JVASP-1303,NdMg,221,Pm-3m,cubic,3D,0.0244,0.0268,1.6511194,1.6394119,6.911360019,6.814420649,2535166.9,2535436.7,0.000108633,0.000106738,1.10E-06,1.10E-06,na,na
JVASP-3783,Ca3AsBr3,221,Pm-3m,cubic,3D,1.5645,2.176,-231.18929,209.5942,2595.241941,1900.783613,48555.947,43268.731,0.990221334,0.762600366,0.640336069,0.640336069,-234.13254,213.82158
JVASP-4149,Rb2Te5,12,C2/m,monoclinic,3D,0.0382,0.765,-185.5789933,155.8461367,7025.436315,1360.778291,117031.174,60977.281,0.782655241,0.365103923,0.004756058,0.004756058,-186.8203867,201.2485833
JVASP-1387,Na2O,225,Fm-3m,cubic,3D,2.2139,4.707,-93.90215067,584.4499,609.3352302,1140.064093,69104.322,3337.6031,0.191633286,0.669391032,0.341328164,0.341328164,-90.931759,569.91841
JVASP-1750,ErSbPd,216,F-43m,cubic,3D,0.0087,0.128,-243.4539433,143.90574,3445.689381,1832.66173,58135.64533,88496.49633,1.026281477,0.483524118,0.002662387,0.002662387,-253.18928,155.45145
JVASP-3420,InAgS2,122,I-42d,tetragonal,3D,0.6147,1.6152,-43.771853,277.6957067,222.3780373,1793.530422,116062.6433,23390.66033,0.050546237,0.812556362,0.05482066,0.05482066,-47.235274,277.36991
JVASP-2068,MgBr2,164,P-3m1,trigonal,2D,4.4785,6.2375,-86.14438367,304.23782,607.7359879,1343.299761,81795.61433,16473.95803,0.175706811,0.644598518,0.346957077,0.346957077,-91.626034,441.30065
JVASP-2205,Al2HgSe4,82,I-4,tetragonal,3D,1.4625,2.3422,-71.317551,410.2209433,513.0387438,1882.872955,95742.82067,11172.66667,0.118900083,1.048500123,0.195132567,0.195132567,-66.595259,420.68869
JVASP-3201,YAgTe2,113,P-42_1m,tetragonal,3D,0.8439,1.1622,-172.77429,198.44519,1290.250079,1800.054853,40288.121,46292.91067,0.451435067,0.632512535,0.576526125,0.576526125,-214.6323167,212.03741
JVASP-2748,ZnPtF6,148,R-3,trigonal,3D,2.1817,2.5078,-412.34856,429.68367,1142.960555,672.8300038,6773.5284,3668.317067,0.653407952,0.395929371,3.559877985,3.559877985,-388.6664433,434.04678
JVASP-3498,Cd(InSe2)2,82,I-4,tetragonal,3D,0.8618,2.1609,-46.61342867,308.8598967,249.4545064,2528.318189,114456.7833,26537.555,0.057366687,1.161409018,0.133463857,0.133463857,-49.80384567,327.8409367
JVASP-1663,TbRbS2,166,R-3m,trigonal,3D,2.3088,3.5339,-268.3133133,281.8947467,3267.300415,1656.607597,44879.183,20836.33537,1.327956956,0.791235396,0.669216571,0.669216571,-241.4173067,285.4976167
JVASP-2148,Na3P,194,P6_3/mmc,hexagonal,3D,0.4887,na,-45.26959667,378.5701033,253.1208551,1802.902701,120979.1033,12340.2082,0.055517662,0.927521377,0.126024365,0.126024365,-44.40170333,379.9841833
JVASP-3687,MgH2,136,P4_2/mnm,tetragonal,3D,4.085,5.8059,-270.6964467,408.1419233,3310.897903,3504.501384,44775.84667,21931.89707,1.34641824,1.727776573,0.53320602,0.53320602,-214.68611,417.1104133
JVASP-2898,RbTeAu,51,Pmma,orthorhombic,3D,1.0319,1.8298,-133.62791,183.1454967,1112.962769,1071.438643,62761.92833,32396.85767,0.356943274,0.438590303,0.700288073,0.700288073,-120.5386667,198.9921567
JVASP-3894,TiNCl,59,Pmmn,orthorhombic,2D,0.2476,na,-137.439249,108.5231633,1286.107005,1365.880198,48860.01184,65555.5243,0.456373933,0.415376464,100.9336142,100.9336142,-150.3357633,91.698475
JVASP-3684,K2PtCl6,225,Fm-3m,cubic,3D,1.6459,2.1625,-240.81014,409.23414,2109.936094,1836.399433,36384.78067,10965.37367,0.920954211,1.02965821,0.724908116,0.724908116,-253.44358,435.68184
JVASP-3486,Cd(InTe2)2,82,I-4,tetragonal,3D,0.4106,1.7152,-87.665075,257.0501767,857.1982343,2243.183321,101397.005,33950.526,0.165694333,0.933529825,0.113869051,0.113869051,-80.727486,293.2724367
JVASP-2493,ZnCu2GeS4,121,I-42m,tetragonal,3D,0.3862,na,-115.5673267,295.4667267,1067.337658,2295.851436,78043.125,26201.42533,0.287727077,1.022757805,0.080341484,0.080341484,-111.9357667,282.1203367
JVASP-2056,OsCl2O,71,Immm,orthorhombic,2D,0.0002,na,-4.7284774,-1.361937567,7.659378576,8.295260076,3992533.893,3991268.067,0.003350211,0.003365047,0.000438686,0.000438686,na,na
JVASP-2478,KZnF3,221,Pm-3m,cubic,3D,4.1604,6.6027,-125.14958,90.584188,837.315746,698.6547646,53460.186,85144.742,0.299318341,0.187832743,0.496898887,0.496898887,-113.54855,380.87489
JVASP-1186,InAs,216,F-43m,cubic,3D,0.6457,0.3981,-42.478109,221.6819,279.5124818,2705.085832,154906.9333,55045.34267,0.047309022,0.740721862,0.000322957,0.000322957,-41.848837,218.83344
JVASP-2319,BaPdS2,63,Cmcm,orthorhombic,3D,0.0365,0.1071,-216.1149633,-64.63825,2300.177184,1122.177499,48104.81867,24958.28597,0.610098827,0.212186822,0.002177083,0.002177083,-268.1476167,260.3326233
JVASP-3396,K3CrO4,121,I-42m,tetragonal,3D,0.5508,1.1731,34.314677,30.98432,108.3634819,96.78086742,69400.241,70063.34867,0.052681058,0.047058999,3.88E-05,3.88E-05,38.643672,37.25869367
JVASP-1342,UN2,225,Fm-3m,cubic,3D,0.8641,0.7896,-403.34142,412.79706,3247.559982,4073.891428,19962.344,23907.61533,1.652572751,1.962340037,0.890173734,0.890173734,-420.08764,409.16272
JVASP-1729,CdCN2,166,R-3m,trigonal,3D,2.3413,3.9283,-252.09394,383.3255933,2429.245687,4612.342426,38272.62,31289.23533,0.990860104,2.127996978,0.785523481,0.785523481,-268.60286,387.5764133
JVASP-1879,NaVO2,166,R-3m,trigonal,3D,0.0227,0.012,31.72350537,31.70985773,621.7744637,636.0468057,218537.1393,220177.67,0.064115496,0.065484416,2.68E-05,2.68E-05,35.91018967,36.00183267
JVASP-4026,BiTeCl,186,P6_3mc,hexagonal,2D,1.2169,1.8415,-98.35639367,206.93874,829.9529626,1170.327028,78639.334,31689.15567,0.202891901,0.527920004,0.25039229,0.25039229,-87.54306567,315.4611
JVASP-1573,RbNdO2,166,R-3m,trigonal,3D,3.4488,5.0433,-253.1725333,508.94772,2815.07069,1394.277348,43935.00333,5355.671567,1.148467431,0.80664031,0.677471228,0.677471228,-240.08586,501.7633567
JVASP-3534,BiClO,129,P4/nmm,tetragonal,2D,2.8705,4.0048,-100.6698733,406.1945,736.7612702,2344.053831,70452.59767,14249.86277,0.216033839,1.237903156,0.436922112,0.436922112,-115.8894537,360.84363
JVASP-2217,Hg2GeSe4,82,I-4,tetragonal,3D,0.7387,1.4127,-38.94152467,295.0434267,196.6625844,2456.774554,129099.3367,28269.12,0.040660421,1.091271821,0.035466618,0.035466618,-44.52012567,320.5395367
JVASP-3711,BaHI,129,P4/nmm,tetragonal,3D,3.0214,3.7237,-111.2646247,204.2063633,769.612616,1099.135943,56555.77033,28196.29867,0.254512641,0.478468387,0.638238611,0.638238611,-142.7829467,221.04274
JVASP-3915,NdBr3,63,Cmcm,orthorhombic,2D,2.6541,3.7473,-201.9007667,253.5631033,1070.404659,1306.58895,24405.04533,21209.88697,0.49132404,0.593236266,1.124572705,1.124572705,-267.0813533,278.8413067
JVASP-1543,RbDyO2,166,R-3m,trigonal,3D,3.6545,5.4721,-232.4178033,465.8814067,2471.058088,1743.075334,45758.15133,8023.6084,0.970210528,0.980898271,0.623841714,0.623841714,-241.5349767,455.4928733
JVASP-2041,MnBr2,164,P-3m1,trigonal,2D,1.4195,0.0012,-369.1509267,385.2606033,1731.451202,1566.533724,12654.80235,11046.58517,0.925934606,0.845380597,182.7667258,182.7667258,-344.5056567,395.48639
JVASP-2017,LiCoO2,166,R-3m,trigonal,3D,1.005,na,-419.76275,460.3449733,2289.787416,995.8629842,12995.68767,4689.006467,1.221346294,0.581790117,1.666012118,1.666012118,-419.92531,470.1306767
JVASP-2211,Al2CdSe4,82,I-4,tetragonal,3D,2.0941,3.2205,-66.20989667,430.7072533,452.4787131,1558.016508,103645.5603,8392.326967,0.115126312,0.884188993,0.224594092,0.224594092,-61.035948,426.49616
JVASP-3879,Tl2SnCl6,225,Fm-3m,cubic,3D,2.1478,3.2199,-116.83894,368.26997,710.2015941,2205.049582,52024.32167,16258.69733,0.259048555,1.190466055,0.457906184,0.457906184,-137.09047,408.47128
JVASP-3582,K2ReBr6,225,Fm-3m,cubic,3D,0.7128,0.0018,-305.21983,318.24845,1429.144967,1747.072562,15340.89833,17249.573,0.776249972,0.93371394,1.40611294,1.40611294,-318.33203,335.22999
JVASP-1561,NaScO2,166,R-3m,trigonal,3D,4.0371,5.212,-353.1288867,405.2413067,2392.687071,1702.454163,18755.79167,10506.1524,1.178214321,0.91505437,1.561007973,1.561007973,-327.7376033,417.94333
JVASP-4173,AuCl,141,I4_1/amd,tetragonal,3D,1.73,2.4068,-293.13144,217.8539067,2047.794189,1291.088905,26052.516,31054.87367,0.944027955,0.544547306,2.105158734,2.105158734,-248.9670167,235.52242
JVASP-2991,Ca(MgAs)2,164,P-3m1,trigonal,3D,1.3743,1.807,-258.1033867,201.1839067,4063.530911,1451.341748,62851.03,37720.74667,1.353326224,0.557329039,0.910968573,0.910968573,-255.6440567,214.4043833
JVASP-2418,GaCuS2,122,I-42d,tetragonal,3D,0.7614,1.5436,-54.44118467,288.3983133,297.5203974,1726.770626,100494.9627,21320.549,0.075130822,0.793731378,0.168707064,0.168707064,-53.131403,293.7372933
JVASP-1699,ThSbRh,216,F-43m,cubic,3D,0.787,0.7495,-263.56597,309.73059,3833.941479,4228.770894,55190.815,44080.44367,1.446255285,1.4252955,0.402461109,0.402461109,-247.40598,320.6042
JVASP-3060,K4BeP2,166,R-3m,trigonal,3D,1.2212,2.716,-86.86898567,411.99564,557.0667652,804.5573768,74014.101,4636.662833,0.170259213,0.468422878,0.304678495,0.304678495,na,na