JID,Composition,Spg.numb.,Spg.symb.,Cryst.,Dimensionality,OPT SCF gap, MBJ gap,n-Seebeck,p-Seebeck,n-powerfact,p-powerfact,n-cond,p-cond,n-ZT,p-ZT,Avg.elec.mass,Avg.hole mass,n-mp-Seeb,p-mp-Seeb
JVASP-8595,K2TeBr6,225,Fm-3m,cubic,3D,1.8937,2.3668,-204.88723,326.31732,2590.573718,1916.89311,61711.51,18001.871,0.929443751,1.026316524,0.425509116,0.425509116,-212.09575,344.56543
JVASP-8596,NaBeH3,221,Pm-3m,cubic,3D,1.6672,3.1115,-167.87348,195.1687,1089.359694,3078.8691,38655.128,80829.685,0.450488181,0.935001768,0.787943108,0.787943108,-125.79933,189.95288
JVASP-8598,CuH4(OF)2,12,C2/m,monoclinic,3D,0.009,0.0769,-273.28506,359.9327567,1188.809253,1132.848903,13615.5875,11948.17977,0.588108296,0.580205497,4.504330428,4.504330428,na,na
JVASP-8599,GaHO2,31,Pmn2_1,orthorhombic,3D,3.3154,5.0024,-86.969119,479.95848,584.5845724,1170.505525,76919.632,5644.3683,0.175257187,0.664091148,0.324120391,0.324120391,-79.48086233,456.69204
JVASP-8600,NaHO,63,Cmcm,orthorhombic,3D,3.1797,6.2949,-127.3595,445.4545967,815.7500213,1766.912344,50388.583,8690.223467,0.301218178,0.955496877,0.520150311,0.520150311,-126.2116233,455.8902033
JVASP-8601,NaHO,11,P2_1/m,monoclinic,3D,3.1955,6.3008,-128.40619,447.5129433,829.915526,1738.815552,50435.85767,8535.026267,0.308271296,0.941294068,0.528479657,0.528479657,-125.9024467,463.7390567
JVASP-8602,RbCaH3,221,Pm-3m,cubic,3D,3.3447,4.9363,-212.46049,433.56507,2182.157857,1477.471366,48342.578,7859.782,0.838771936,0.8423467,0.545319491,0.545319491,-209.65632,457.90512
JVASP-8603,CuH,186,P6_3mc,hexagonal,3D,0.044,1.0724,-203.4183167,285.2628833,2569.180012,4279.732642,66198.44667,52454.68067,0.637870146,1.574711502,1.752764418,1.752764418,-211.71233,273.4368
JVASP-8605,LiNd2HO3,71,Immm,orthorhombic,3D,2.0537,3.3216,-184.5497033,211.1127333,1618.250255,1585.820664,39295.43033,29897.69077,0.62700563,0.676323078,0.773958977,0.773958977,-167.02497,237.1278933
JVASP-8606,SrLiH3,221,Pm-3m,cubic,3D,2.364,0.0056,-259.59188,320.62491,2779.994485,1617.202718,41253.588,15731.493,1.157339092,0.823258607,0.685848001,0.685848001,-239.79292,303.98662
JVASP-8607,KH2N,11,P2_1/m,monoclinic,3D,2.3828,4.7043,-123.79586,360.50911,814.7176169,1210.909523,53161.24467,11452.2393,0.297934268,0.612141912,0.52619759,0.52619759,-116.9588567,382.4917567
JVASP-8608,Rb2CaH4,139,I4/mmm,tetragonal,3D,3.3686,4.9306,-272.9974033,382.9258733,2428.705723,1459.015971,33157.34103,10142.4402,1.006149244,0.819513966,5.706081826,5.706081826,-283.5296,382.9014033
JVASP-8609,Sr2Co(ClO)2,139,I4/mmm,tetragonal,3D,0.0011,na,39.75518823,39.2695834,15.80391646,21.38611426,1130471.16,1129884.687,0.008106373,0.008855701,0.00037642,0.00037642,na,na
JVASP-8610,NdCoO3,221,Pm-3m,cubic,3D,0.0024,na,5.0618279,5.2526019,73.70802233,79.43544273,2876736,2879157,0.000956075,0.001030304,1.00E-06,1.00E-06,9.1437744,9.2866923
JVASP-8611,PrCoO3,221,Pm-3m,cubic,3D,0.0158,na,5.0975845,5.2672603,75.71082971,80.90318155,2913594.7,2916057.2,0.000976701,0.001043599,9.86E-07,9.86E-07,-4.8276732,-4.2110421
JVASP-8614,CoO,216,F-43m,cubic,3D,0.0293,0.0064,-7.901732333,-7.753282233,96.30133461,92.59038324,1542366.833,1540262.333,0.002276262,0.00218481,1.86E-06,1.86E-06,na,na
JVASP-8615,SmCoO3,221,Pm-3m,cubic,3D,0.0016,na,4.9626049,5.1489312,70.82297044,76.3048581,2875773.9,2878180.4,0.000920411,0.000991607,1.00E-06,1.00E-06,-5.1563539,-4.3623198
JVASP-8616,Sr2Co(BrO)2,139,I4/mmm,tetragonal,2D,0.0369,na,69.0728998,68.24424897,115.2895628,140.0942278,958355.23,955726.31,0.054539329,0.061554264,0.000252197,0.000252197,na,na
JVASP-8618,CrPbO3,221,Pm-3m,cubic,3D,0.0358,na,29.930602,29.746386,1104.483007,1098.759712,1232900.8,1241750.4,0.035560315,0.035259949,2.25E-06,2.25E-06,1.5556207,1.3844178
JVASP-8619,SrCrO3,221,Pm-3m,cubic,3D,0.0065,0.005,37.746687,37.346592,1882.757764,1856.579642,1321407.5,1331102.9,0.059858532,0.058828174,2.12E-06,2.12E-06,-0.5100823,-0.63313555
JVASP-8620,CeCrO3,221,Pm-3m,cubic,3D,0.0018,na,-41.654806,-42.493453,1056.417635,1094.758286,608843.13,606281.33,0.108113235,0.112582534,3.81E-06,3.81E-06,na,na
JVASP-8621,CrHO2,160,R3m,trigonal,2D,1.3581,0.0124,-385.3983533,399.30753,1587.096123,1033.710691,10648.9204,6651.589367,0.833980103,0.582410975,2.834757686,2.834757686,na,na
JVASP-8622,In(FeO2)2,166,R-3m,trigonal,3D,0.0004,na,-32.126295,-32.20168267,435.5642497,411.9283051,467632.85,463727.7633,0.031956243,0.032109957,1.04E-05,1.04E-05,na,na
JVASP-8623,FeBiO3,160,R3m,trigonal,3D,0.0013,0.0001,2.834304667,2.626581867,18.56940486,15.95705221,2313493.733,2314859.1,0.000332246,0.000284983,1.18E-06,1.18E-06,-3.834599367,-4.066174333
JVASP-8624,CaFeO2,123,P4/mmm,tetragonal,3D,0.0095,na,-3.27429984,-3.78184475,57.5457522,77.14684486,3057031.033,3051384.333,0.000674336,0.000902376,1.27E-06,1.27E-06,16.30359167,16.27497367
JVASP-8625,BaYFe2O5,123,P4/mmm,tetragonal,3D,0.0022,na,-22.965395,-22.92730433,524.4527554,527.7290945,1629542.577,1617798.23,0.022345606,0.021274861,3.40E-06,3.40E-06,na,na
JVASP-8626,SrFeO2,123,P4/mmm,tetragonal,3D,0.0149,0.0073,-4.508734,-4.784132667,430.8541037,451.1446021,2791313.663,2781181.063,0.006140512,0.006369332,1.54E-06,1.54E-06,22.0426348,21.87074907
JVASP-8627,FeHO2,36,Cmc2_1,orthorhombic,2D,0.003,na,-26.23895,-26.77082733,431.5283163,443.2860357,1229961.857,1226247.633,0.026049442,0.026991688,1.32E-05,1.32E-05,na,na
JVASP-8628,NaMnO2,59,Pmmn,orthorhombic,3D,0.0138,na,-377.1525667,339.73908,1832.077856,2484.804754,12421.99167,16133.6575,0.951274979,1.096177943,2.442123604,2.442123604,-284.2090767,335.34924
JVASP-8629,NdMnPO,129,P4/nmm,tetragonal,3D,0.0061,na,-7.652324333,-5.960195767,24.10626179,17.74215866,1054328.375,1052120.207,0.001263663,0.000768687,3.48E-05,3.48E-05,15.09410507,15.1378191
JVASP-8630,NdMnAsO,129,P4/nmm,tetragonal,3D,0.0196,na,8.398230333,8.086692667,345.9196586,343.2847922,994307.8397,1003018.721,0.00960868,0.009545312,4.05E-05,4.05E-05,43.15983,42.35908667
JVASP-8632,LaNiO2,123,P4/mmm,tetragonal,3D,0.0022,na,-16.83020267,-17.048092,638.6530007,651.9230223,3198434.933,3176074.633,0.013633637,0.013878207,1.32E-06,1.32E-06,na,na
JVASP-8633,VPbO3,99,P4mm,tetragonal,2D,0.0048,0.0083,-50.49171933,-39.18077067,361.6423167,197.4478817,128076.2183,125220.8993,0.038396343,0.022776443,4.38E-05,4.38E-05,na,na
JVASP-8635,UV2O6,162,P-31m,trigonal,3D,0.0076,0.001,-30.70076133,-30.32364933,155.6556254,151.2413562,174861.42,173710.7433,0.024063462,0.02326058,1.90E-05,1.90E-05,-31.61665667,-31.70738567
JVASP-8636,SmVO3,221,Pm-3m,cubic,3D,0.0053,0.0083,-3.2492753,-3.4368793,35.37067841,39.54477452,3350197.2,3347808,0.000444077,0.000496899,8.27E-07,8.27E-07,-8.2079566,-8.2931742
JVASP-8637,CeVO3,221,Pm-3m,cubic,3D,0.001,na,46.467543,46.174068,5052.332109,5007.497869,2339874,2348683.5,0.101983576,0.100795308,1.29E-06,1.29E-06,na,na
JVASP-8639,CrHO2,31,Pmn2_1,orthorhombic,3D,1.1125,na,-356.6543933,457.9847333,1571.15176,957.4290553,12311.20167,4634.545533,0.798966142,0.55392698,2.356626314,2.356626314,-352.3477367,462.06893
JVASP-8641,Mn(HO)2,164,P-3m1,trigonal,2D,0.8558,0.0044,-108.33145,401.4412267,583.7824737,1490.071519,48982.64033,8907.927233,0.172127978,0.815188255,0.23602033,0.23602033,na,na
JVASP-8642,MnO2,166,R-3m,trigonal,2D,0.7351,0.0091,-404.6479433,379.74573,1547.000186,992.6082994,16008.10097,6845.8283,0.761798456,0.559666873,209.242309,209.242309,na,na
JVASP-8643,MoO2,166,R-3m,trigonal,2D,0.0044,0.0018,12.96309117,13.232032,299.5204161,323.4040462,3111595.043,3119735.003,0.006495886,0.006700177,4.18E-06,4.18E-06,8.9962995,9.781005567
JVASP-8644,LiNiO2,1,P1,triclinic,3D,0.0044,0.0095,-70.70915567,-67.55409667,1808.673005,1551.559925,163202.634,161987.0173,0.246579821,0.210154353,5.61E-05,5.61E-05,na,na
JVASP-8645,NiO2,166,R-3m,trigonal,2D,0.7779,0.6477,-351.6364767,435.9046467,2898.028089,1541.320473,23411.66033,8246.279,1.388476382,0.85942819,1.055370894,1.055370894,-368.2168267,436.1763467
JVASP-8646,LiNiO2,44,Imm2,orthorhombic,3D,0.0003,0.0046,75.62713533,76.36578833,1344.214364,1417.368157,523961.8667,530926.3067,0.136550468,0.142712804,4.06E-05,4.06E-05,na,na
JVASP-8648,VO2,166,R-3m,trigonal,2D,0.0135,0.0056,61.13286533,60.38151133,1618.492981,1618.226094,650110.1767,658156.26,0.167008668,0.163918085,7.36E-06,7.36E-06,na,na
JVASP-8649,LiWO2,166,R-3m,trigonal,3D,0.001,na,7.885238133,7.4837057,119.1526761,93.80363959,7024555.333,7037526.567,0.002709088,0.002544532,7.37E-06,7.37E-06,na,na
JVASP-8650,LiCuPO4,82,I-4,tetragonal,3D,0.0077,1.2647,-147.2397967,141.1724287,233.8165131,171.8940014,9998.390533,8196.8012,0.091726581,0.064146008,0.007132137,0.007132137,na,na
JVASP-8651,K2PtBr4,123,P4/mmm,tetragonal,3D,1.6061,2.0036,-189.03706,402.5183933,1598.19765,1232.600256,39429.9067,6775.076733,0.583341459,0.690946298,1.859316883,1.859316883,-210.5336,410.79774
JVASP-8652,Rb2MnBr4,139,I4/mmm,tetragonal,3D,0.8307,na,-324.0113433,255.3363733,588.2488271,500.6722148,17350.68727,46679.84167,0.28058505,0.174936394,12261.35853,12261.35853,-328.8425067,238.5105133
JVASP-8654,Sn4P3,166,R-3m,trigonal,3D,0.0013,na,24.31369033,23.87597433,2282.112351,2261.454179,3655290.567,3759824.767,0.024164538,0.023351728,8.03E-07,8.03E-07,na,na
JVASP-8655,KAuO2,47,Pmmm,orthorhombic,2D,1.1813,1.7275,-281.2662533,332.2737033,2074.451811,1542.476805,24597.41157,11485.31583,0.892214896,0.735825863,1.726191498,1.726191498,-275.0786167,325.7153667
JVASP-8656,Tl2O,166,R-3m,trigonal,2D,0.0448,na,-187.9068567,305.0627833,3252.097461,3631.034755,88164.382,46225.07233,0.865547186,1.351795495,0.265383087,0.265383087,-166.59587,357.61936
JVASP-8657,YUO4,123,P4/mmm,tetragonal,3D,0.0068,0.001,-11.44458287,-12.4180812,28.12179467,30.69145295,464182.684,463874.9607,0.008935447,0.00957607,1.35E-05,1.35E-05,na,na
JVASP-8658,UBrO2,63,Cmcm,orthorhombic,2D,0.0021,na,-180.543032,-174.722149,471.6279512,405.4826365,25003.9726,23986.27223,0.174833434,0.151085145,0.004769702,0.004769702,na,na
JVASP-8659,Rb2SnI6,225,Fm-3m,cubic,3D,0.2511,0.4894,-66.75175967,82.72367133,342.2143568,411.447313,76802.04567,60124.93633,0.07411965,0.070567986,0.000123396,0.000123396,-78.481856,234.06415
JVASP-8660,Cs2SnI6,225,Fm-3m,cubic,3D,0.2412,na,-72.194939,86.02538367,385.631134,376.2485919,73987.539,50841.88533,0.094077259,0.071126946,0.000147909,0.000147909,-91.281027,339.85438
JVASP-8661,Li5B4,160,R3m,trigonal,3D,0.0137,na,12.374525,12.351669,328.9733759,318.2951461,1760890.8,1782456.7,0.006917255,0.006672238,1.62E-06,1.62E-06,na,na
JVASP-8662,KCu4S3,123,P4/mmm,tetragonal,3D,0.0043,na,41.34878,40.861092,1420.317747,1418.836624,874081.78,892650.9633,0.063903955,0.062546173,5.20E-06,5.20E-06,na,na
JVASP-8664,SO2,41,Aea2,orthorhombic,0D,2.6465,4.2377,-306.69299,290.88536,1036.22959,1134.617565,10249.35743,11908.07843,0.546104697,0.577599379,3.133550791,3.133550791,-355.29502,343.9963167
JVASP-8665,ICl3,2,P-1,triclinic,0D,1.455,3.1484,-265.6190367,262.7033767,2100.077155,1001.680896,26562.418,14438.83233,0.920178252,0.509852823,2.164025527,2.164025527,-278.0515533,324.7407767
JVASP-8666,TlAgI2,140,I4/mcm,tetragonal,3D,1.8332,2.4325,-151.49522,386.0842633,1135.74309,1165.195679,49566.84967,8045.567733,0.413424389,0.649208441,0.678927769,0.678927769,-123.1561233,380.5666267
JVASP-8667,TbCl,166,R-3m,trigonal,2D,0.0061,0.1226,-10.62908717,-11.60026947,24.06952947,24.7056598,259395.9067,258006.7967,0.003742244,0.005044065,1.45E-05,1.45E-05,44.399204,44.429565
JVASP-8668,CI4,121,I-42m,tetragonal,0D,0.9409,1.618,-162.8596167,403.0014,837.0756951,1145.638834,31248.85933,7148.123667,0.364269232,0.654866911,0.746856651,0.746856651,-206.9627467,382.8398033
JVASP-8669,Np(OF)2,166,R-3m,trigonal,2D,0.1802,0.0195,-97.54430767,-99.41954367,498.3742425,506.1093908,43958.32667,43252.69567,0.213220273,0.21723586,0.015841311,0.015841311,-82.95067767,-84.44952733
JVASP-8670,SbTeI,2,P-1,triclinic,2D,0.8908,1.2528,-199.6346933,345.9286233,1357.855592,1306.408819,34738.274,10138.36277,0.570675554,0.698535023,0.741585129,0.741585129,-132.6939033,294.53651
JVASP-8671,Li2MnBr4,65,Cmmm,orthorhombic,3D,1.6056,na,-323.6220167,365.7362867,806.2099223,1316.931989,10219.65655,9878.249067,0.418613597,0.746879186,45.6029795,45.6029795,-334.88057,375.7439733
JVASP-8673,Li3BrO,221,Pm-3m,cubic,3D,4.6716,na,-212.82821,412.02707,3009.368471,2804.862957,66438.066,16521.906,1.020500174,1.40490103,0.415520096,0.415520096,-218.67338,407.12707
JVASP-8675,Pt(SCl3)2,2,P-1,triclinic,2D,1.6505,2.3845,-268.6760367,357.9342667,1375.850279,953.3591067,18353.10567,7923.091643,0.665521084,0.526979184,1.153641242,1.153641242,-361.1140467,371.9122433
JVASP-8677,Zn(BIr)2,139,I4/mmm,tetragonal,3D,0.0009,na,-12.91680667,-11.86037167,1299.651165,1420.318471,1721074.6,1754029.407,0.077291189,0.078903709,4.48E-06,4.48E-06,na,na
JVASP-8678,Ba(P2Pd)2,139,I4/mmm,tetragonal,3D,0.0148,0.059,38.188824,39.463992,2368.830753,2670.746213,1481344.933,1550602.467,0.051594068,0.05783441,1.91E-06,1.91E-06,31.770178,33.52924367
JVASP-8679,Li2MgBr4,65,Cmmm,orthorhombic,3D,4.7839,3.6806,-93.38898067,416.6632467,644.1611221,2033.741369,73751.557,11827.8213,0.19648912,1.097411607,0.351305223,0.351305223,-89.03194367,424.9349233
JVASP-8680,Li5NCl2,166,R-3m,trigonal,3D,2.2412,na,-214.08501,326.1184933,2591.273127,1636.073267,56747.885,16643.00937,0.925466773,0.805878551,0.512769593,0.512769593,-203.7437333,315.71936
JVASP-8681,Zr2NiP,11,P2_1/m,monoclinic,3D,0.0022,na,-3.04647359,-2.711976523,292.7309724,296.0324336,1789122.943,1785175.473,0.00424821,0.004355875,2.07E-06,2.07E-06,-2.590395333,-2.282337933
JVASP-8682,AuCN,183,P6mm,hexagonal,1D,1.3632,2.0266,-162.84295,381.72385,2419.854592,3957.013317,91656.06633,26961.857,0.696895115,1.861433275,0.31563477,0.31563477,-165.3835267,382.9877733
JVASP-8683,Ba2PdO3,71,Immm,orthorhombic,3D,0.3031,0.0552,-53.601385,-41.28396,2860.611744,1556.058095,121892.8947,88353.24267,0.250820007,0.211259769,0.00030781,0.00030781,-54.90195,-38.10751
JVASP-8684,Mg2Al2Se5,164,P-3m1,trigonal,3D,1.3067,2.2839,-66.58036833,282.2281667,712.2371379,1258.774157,92332.23367,14087.55706,0.130545891,0.626204876,0.215335958,0.215335958,na,na
JVASP-8686,AgBiS2,166,R-3m,trigonal,3D,0.1489,1.1287,-184.35995,297.4641,3268.588813,7562.618085,107360.8923,85511.98833,0.690345522,2.328250004,0.321603062,0.321603062,-172.4287067,280.4585233
JVASP-8687,MgNiBi,216,F-43m,cubic,3D,0.0201,0.0375,2.946946733,2.7896366,53.50736307,48.02249902,6161252.067,6170913.967,0.000359336,0.000321816,4.58E-07,4.58E-07,na,na
JVASP-8688,TlClO3,160,R3m,trigonal,3D,4.6064,5.2054,-297.68326,448.37137,3192.453504,1254.236961,36036.90433,6284.3883,1.326641792,0.724821134,0.760971323,0.760971323,na,na
JVASP-8689,UCO5,44,Imm2,orthorhombic,2D,2.4797,2.3879,-522.8057833,424.0281233,271.9117185,883.5806675,1319.914557,4896.064833,0.16146209,0.514314949,45119.19058,45119.19058,-516.2012067,419.57189
JVASP-8690,MgC2,136,P4_2/mnm,tetragonal,1D,2.7497,3.3948,-138.19852,351.8427,1122.659429,2323.130769,62487.47433,18903.64433,0.37199292,1.118236712,0.866941263,0.866941263,-130.00459,398.98642
JVASP-8691,TlBrO3,160,R3m,trigonal,3D,3.7304,3.5145,-194.8146967,361.2109967,1695.064276,1888.130042,44800.27567,14470.48067,0.583669913,1.000732989,0.368124835,0.368124835,na,na
JVASP-8693,LiAuC2,187,P-6m2,hexagonal,3D,1.5611,2.1041,-145.0133933,427.0578767,2204.291834,3929.730076,103717.3023,22448.905,0.572131193,1.823788164,0.264809187,0.264809187,-151.1021133,423.33921
JVASP-8694,Rb2CdCl4,139,I4/mmm,tetragonal,3D,3.2076,5.0716,-143.41441,415.8246167,1092.788153,1201.93944,43127.02067,6958.295767,0.387563331,0.689465952,0.679031136,0.679031136,-130.1860933,423.9263
JVASP-8695,NaLi5N2,123,P4/mmm,tetragonal,3D,2.9961,3.243,-158.99927,354.2388067,956.2325578,2595.906155,37770.68667,20682.08833,0.373558019,1.233015122,0.576685651,0.576685651,-190.24977,352.2251833
JVASP-8697,Rb4Br2O,139,I4/mmm,tetragonal,3D,0.3614,na,-105.0605167,283.03886,658.9599306,2271.157977,59594.078,17394.27303,0.224146184,1.12731547,0.356035177,0.356035177,-105.3038067,309.0112033
JVASP-8698,KrF2,139,I4/mmm,tetragonal,3D,2.6293,4.1532,-360.7840667,471.31047,2887.375475,1407.064358,17351.962,6384.816867,1.17297521,0.801052852,3.057578415,3.057578415,-347.8718767,533.27234
JVASP-8699,BaCdSb2,139,I4/mmm,tetragonal,3D,0.0029,na,-40.35258167,-17.26052167,7253.293571,2827.162375,897758.1867,725777.62,0.156753036,0.079013445,2.78E-05,2.78E-05,na,na
JVASP-8700,Li2CeGe,194,P6_3/mmc,hexagonal,3D,0.0002,na,9.876927133,9.810003567,84.09354342,82.90272297,751717.27,752189.8067,0.005265545,0.005191008,3.93E-06,3.93E-06,na,na
JVASP-8701,Rb3BrO,221,Pm-3m,cubic,3D,0.3402,2.203,-98.969322,415.81918,641.0996677,2790.702973,65452.217,16140.039,0.208713798,1.436011289,0.278064465,0.278064465,-97.482335,420.41716
JVASP-8702,Li2GePd,225,Fm-3m,cubic,3D,0.0256,0.0128,-1.466796167,-1.481121267,24.4315866,24.88830637,11355653.67,11345251,8.77E-05,8.94E-05,2.48E-07,2.48E-07,na,na
JVASP-8703,BC2N,17,P222_1,orthorhombic,3D,2.458,3.3121,-110.21628,186.19348,739.8332261,1411.486424,60136.09633,41119.541,0.234986383,0.487318814,0.48338536,0.48338536,-115.4880933,187.5508367
JVASP-8704,Bi2CO5,8,Cm,monoclinic,2D,1.231,2.7527,-180.39777,348.4050067,1618.585463,1864.955445,37642.02493,12861.41437,0.622794211,0.8761278,2.992102157,2.992102157,-163.9374267,343.0074067
JVASP-8705,Mg2H2O3,164,P-3m1,trigonal,2D,4.0685,6.2221,-117.7111567,367.90779,724.8176363,1285.295624,52383.758,8491.615377,0.263321825,0.697345971,0.487780211,0.487780211,-115.4768833,375.4409167
JVASP-8706,YAuO2,194,P6_3/mmc,hexagonal,3D,2.7637,3.7211,-194.0292,414.42464,1893.302668,3698.773398,50284.127,21913.10517,0.688996789,1.824932943,0.415887654,0.415887654,-241.59089,435.07195
JVASP-8707,SrAg2,74,Imma,orthorhombic,3D,0.0015,na,-10.80833153,-11.32891293,455.3458607,499.5862873,3917262.1,3874270.7,0.004998415,0.005597564,7.39E-07,7.39E-07,-14.31135467,-14.94788663
JVASP-8708,HoSnAu,216,F-43m,cubic,3D,0.1411,0.1207,-149.78631,123.49944,2058.330501,1189.148041,91742.56233,77966.12467,0.328977062,0.179909329,0.000225259,0.000225259,-97.883494,94.682788
JVASP-8710,BaCu,194,P6_3/mmc,hexagonal,3D,0.0022,na,-23.90827867,-20.89607397,964.7911026,773.396163,1472808.433,1441677.8,0.02139734,0.016981796,2.14E-06,2.14E-06,-26.19855267,-23.607406
JVASP-8711,DyNiBi,216,F-43m,cubic,3D,0.0219,na,-237.513,172.71919,3039.972418,2561.859554,53888.34833,85876.45967,0.718543999,0.638548047,0.001561472,0.001561472,-254.72252,179.8963
JVASP-8712,LuNiBi,216,F-43m,cubic,3D,0.087,na,-168.34541,133.13185,2211.095344,1701.426646,78019.814,95995.151,0.327059146,0.286833648,0.000230187,0.000230187,-168.4707,138.76469
JVASP-8713,ScNiBi,216,F-43m,cubic,3D,0.0836,0.0546,-228.64886,190.5584,2329.128928,2154.492011,44550.794,59331.95967,0.536667869,0.524008898,0.001516173,0.001516173,-219.28679,194.50428
JVASP-8714,YNiBi,216,F-43m,cubic,3D,0.0406,0.1225,-232.83758,166.06923,2975.240694,1857.850404,54880.23367,67364.70267,0.759832804,0.477202287,0.001411779,0.001411779,-251.90573,180.52521
JVASP-8715,Ca3Zn,63,Cmcm,orthorhombic,3D,0.0009,na,16.7795088,17.32355223,789.2264307,831.1707625,1630853.433,1640759.233,0.017243564,0.01805012,1.83E-06,1.83E-06,17.76714203,18.90130397
JVASP-8717,ScCd3,194,P6_3/mmc,hexagonal,3D,0.0039,na,17.7116828,17.19354713,1412.217377,1367.753043,3623211.267,3656501.6,0.015736149,0.015158993,7.62E-07,7.62E-07,17.0227842,16.4903419
JVASP-8718,ThCN,12,C2/m,monoclinic,3D,1.2789,1.8242,-277.9470967,271.58351,1524.003001,2274.393824,18931.28137,26352.23432,0.680374209,1.007821208,2.990966448,2.990966448,-357.74914,306.07991
JVASP-8719,SrGaCu2,166,R-3m,trigonal,3D,0.0014,na,10.117729,10.41733283,881.2359849,880.9159896,6419490,6463085.4,0.004425306,0.004552462,8.92E-07,8.92E-07,na,na
JVASP-8720,TmCu5,216,F-43m,cubic,3D,0.0065,na,-8.5430434,-5.941434367,215.2135155,103.8335388,2948793.2,2941406.5,0.002128416,0.001027579,1.13E-06,1.13E-06,-5.9914492,-3.3408629
JVASP-8723,YHg2,191,P6/mmm,hexagonal,3D,0.0065,0.0036,-1.1594151,-1.401711067,252.3343426,254.5996368,5860260.433,5850283.633,0.001290121,0.001283414,5.33E-07,5.33E-07,na,na