JID,Composition,Spg.numb.,Spg.symb.,Cryst.,Dimensionality,OPT SCF gap, MBJ gap,n-Seebeck,p-Seebeck,n-powerfact,p-powerfact,n-cond,p-cond,n-ZT,p-ZT,Avg.elec.mass,Avg.hole mass,n-mp-Seeb,p-mp-Seeb
JVASP-22497,Ca2CoN2,12,C2/m,monoclinic,3D,0.0531,0.0085,27.18108227,27.0180929,365.9198146,378.1987188,412375.5833,412694.4967,0.055385231,0.056868331,1.27E-05,1.27E-05,na,na
JVASP-22498,MgSnF6,148,R-3,trigonal,3D,5.1647,na,-164.2922033,521.39216,928.127641,331.5848367,34380.50567,1220.181967,0.395731146,0.19765916,0.763135016,0.763135016,na,na
JVASP-22499,Ca(TiS2)8,164,P-3m1,trigonal,3D,0.0032,na,-74.03851267,-75.50504467,2951.832949,3039.794056,746229.9487,715133.0222,0.130059173,0.136781241,0.00017195,0.00017195,na,na
JVASP-22737,Si3Os2,60,Pbcn,orthorhombic,3D,0.7977,na,-189.7267067,260.0027567,1803.523359,1451.685142,43113.66407,22385.866,0.622424215,0.693700257,1.46817978,1.46817978,-186.2202967,282.9914033
JVASP-22738,LuAl4Ni,63,Cmcm,orthorhombic,3D,0.0013,na,23.15492433,23.37212467,1875.327139,1913.842536,3510703.267,3574078.6,0.021605474,0.022311145,1.10E-06,1.10E-06,20.358823,20.832847
JVASP-22740,TmAl4Ni,63,Cmcm,orthorhombic,3D,0.0072,0.0005,22.76026033,22.45688667,1499.665269,1479.117532,3056333.333,3107500,0.020850728,0.020534321,1.16E-06,1.16E-06,21.196012,21.15752867
JVASP-22741,NpAl4,74,Imma,orthorhombic,3D,0,0.0001,52.98671633,52.83268633,2194.926679,2195.065856,736446.18,740564.1467,0.134472925,0.133752109,4.21E-06,4.21E-06,60.212651,59.943324
JVASP-22742,Al6Re,63,Cmcm,orthorhombic,3D,0.0062,0.0069,-0.3637159,-0.369876133,8.667239937,3.097904106,1870662,1872250,0.000203366,7.68E-05,1.80E-06,1.80E-06,0.793580993,0.895426063
JVASP-22743,Al6Ru,63,Cmcm,orthorhombic,3D,0.0006,na,6.014254833,7.732826933,211.49642,219.103723,1937845.267,1943327.033,0.0055322,0.006484384,2.33E-06,2.33E-06,3.863499533,5.4235325
JVASP-22745,Mg4As6Ir7,229,Im-3m,cubic,3D,0.0016,na,29.100603,28.718148,1070.742244,1060.887469,1264389.733,1286342.033,0.032973145,0.032396054,2.19E-06,2.19E-06,na,na
JVASP-22756,HoAl7Au3,167,R-3c,trigonal,3D,0.0149,na,19.321724,18.51229533,655.8644587,628.2215639,2409851.267,2451952,0.021504238,0.020335417,1.57E-06,1.57E-06,19.810531,19.1015582
JVASP-22757,NdAl7Au3,167,R-3c,trigonal,3D,0.0137,na,16.66522533,15.49808867,471.2193698,427.706527,2416821.7,2449505.167,0.018084791,0.01620238,1.63E-06,1.63E-06,17.08838807,16.01308043
JVASP-22758,DyAl7Au3,167,R-3c,trigonal,3D,0.0168,na,19.04053633,18.16534233,632.4643162,600.8721247,2413256.9,2454350.867,0.021192991,0.019870239,1.58E-06,1.58E-06,19.47144903,18.71279153
JVASP-22759,ErAl7Au3,167,R-3c,trigonal,3D,0.0073,na,19.80761733,18.99998067,687.8028488,659.8592177,2392912.133,2436364.633,0.022059999,0.02095552,1.57E-06,1.57E-06,20.04214367,19.332759
JVASP-22760,YbAl7Au3,167,R-3c,trigonal,3D,0.0009,na,5.076240288,4.71891331,214.6516396,180.1588948,2444428.467,2448265.267,0.00575175,0.00478786,1.20E-06,1.20E-06,3.119094767,2.648658133
JVASP-22761,SmAl7Au3,167,R-3c,trigonal,3D,0.0153,na,17.38603133,16.3310214,520.2942917,480.2076825,2429433.167,2465161.9,0.01884492,0.017153113,1.60E-06,1.60E-06,17.9794184,17.03389197
JVASP-22762,TmAl7Au3,167,R-3c,trigonal,3D,0.005,na,19.91998233,19.177562,704.8733457,680.8022982,2395339.5,2439526.9,0.021927641,0.021002968,1.56E-06,1.56E-06,20.19440567,19.55187067
JVASP-22763,Nd2MgCu2,127,P4/mbm,tetragonal,3D,0.003,na,2.2863321,2.2309099,37.50867119,44.32561719,1654667.767,1654934.433,0.000941643,0.001097977,1.78E-06,1.78E-06,3.9857369,3.852062
JVASP-22764,PrMgRh,62,Pnma,orthorhombic,3D,0.0015,na,-0.1444202,-0.241147233,116.1154772,119.0837608,2305687.367,2303174.467,0.002300341,0.002351868,1.38E-06,1.38E-06,-3.5466246,-3.380734933
JVASP-22765,LiSn4Rh,140,I4/mcm,tetragonal,3D,0.0023,na,-8.628252067,-6.162662433,898.5068716,677.4151604,2013255.033,1983961.833,0.00898206,0.006894666,1.78E-06,1.78E-06,-11.79341513,-8.5799844
JVASP-22766,Tb2MgPd2,127,P4/mbm,tetragonal,3D,0.0027,na,-4.416813507,-4.315430473,111.976398,105.3358301,2321345.467,2317433.467,0.001840542,0.001738257,1.23E-06,1.23E-06,-6.3488052,-6.320241533
JVASP-22772,Pr2O3,206,Ia3,cubic,3D,3.7876,na,-169.58827,464.44917,839.8758291,321.8244217,29202.73067,1491.909967,0.404035926,0.191331695,0.484982563,0.484982563,-147.58793,467.32346
JVASP-22774,Al6Tc,63,Cmcm,orthorhombic,3D,0.0016,na,-0.397964253,-0.486468347,48.0780427,68.31005202,1973354.8,1968236.367,0.001012814,0.001474962,1.72E-06,1.72E-06,1.453487567,1.373324033
JVASP-22775,Al12Tc,204,Im3,cubic,3D,0.0097,0.0218,-10.689313,-9.792860267,307.7655862,256.4038401,2693521.633,2673655.267,0.004321364,0.003654209,1.08E-06,1.08E-06,na,na
JVASP-22776,TmAl,57,Pbcm,orthorhombic,3D,0.0009,0.0011,13.62975,14.05543913,443.1476367,473.6548573,966996.17,973519.6567,0.010611698,0.011265782,3.58E-06,3.58E-06,15.89616857,16.15207787
JVASP-22777,Y(Al5Fe)2,63,Cmcm,orthorhombic,3D,0.0047,na,-7.763159633,-7.7133561,318.3215707,348.9639923,724870.9433,718533.6233,0.015307189,0.016874078,4.33E-06,4.33E-06,-13.0244792,-12.9281776
JVASP-22778,Ta3Ga2,127,P4/mbm,tetragonal,3D,0.0116,na,11.19641113,11.19077113,549.4573486,527.6268549,2884689.767,2909636.6,0.00598176,0.005791855,1.11E-06,1.11E-06,10.24152493,10.34533867
JVASP-22780,MgSe2O5,60,Pbcn,orthorhombic,3D,3.0964,na,-206.5082833,265.7876667,862.3074435,1222.609535,21469.089,16983.71517,0.417398243,0.579790838,1.27068815,1.27068815,-247.2333,290.06187
JVASP-22782,Ba4LiTa3O12,186,P6_3mc,hexagonal,3D,3.153,na,-235.3924267,412.6882167,1278.305989,772.1052333,17366.85633,4498.888967,0.569937903,0.441529954,1.257011356,1.257011356,na,na
JVASP-22783,Be3Cd4Si3SeO12,218,P-43n,cubic,3D,2.9454,na,-130.75198,480.39513,1033.777048,359.6042566,60468.659,1558.2159,0.364669391,0.214197416,0.623226834,0.623226834,-99.611181,468.08775
JVASP-22787,Dy3(AlNi3)2,229,Im-3m,cubic,3D,0.0121,na,-7.1267747,-6.413496833,41.84928645,33.769445,823952.1633,820982.98,0.001795935,0.001443004,3.71E-06,3.71E-06,-6.2021633,-5.7545981
JVASP-22788,Rb2Cd3Se4,62,Pnma,orthorhombic,3D,1.4599,na,-48.29374267,324.2823533,253.3175215,677.8045632,107570.432,6071.1666,0.061261918,0.392377787,0.151875778,0.151875778,-63.64869767,345.49656
JVASP-22789,Ba3PrRu2O9,194,P6_3/mmc,hexagonal,3D,0.1747,na,18.3497018,19.68030707,38.55456575,44.71998108,131588.0323,131973.538,0.007361318,0.008600061,2.77E-05,2.77E-05,26.94112733,27.43239767
JVASP-22794,Nb5Ge3,140,I4/mcm,tetragonal,3D,0.0034,na,-8.270944467,-7.673919433,195.5378514,160.7270625,1303429.367,1298410.9,0.004893709,0.004008102,2.25E-06,2.25E-06,-8.381610867,-7.416758267
JVASP-22796,Tl3PS4,62,Pnma,orthorhombic,3D,2.0328,na,-242.40716,278.1955867,986.7553415,1124.970679,17010.74013,16825.3224,0.50353373,0.591914764,2.298086664,2.298086664,-294.40546,345.8006133
JVASP-22797,Ga7Ni3,229,Im-3m,cubic,3D,0.0064,na,-8.37182,-8.745079867,311.9239505,337.5476974,4450501.567,4413748.567,0.002892606,0.003143187,6.35E-07,6.35E-07,-10.689419,-11.356808
JVASP-22801,Rb3PS4,62,Pnma,orthorhombic,3D,2.8974,4.0561,-239.1819433,347.58311,656.2843803,204.5440116,11116.68467,1767.52229,0.353188396,0.121707465,1.494751911,1.494751911,-161.90501,362.87985
JVASP-22821,Sr3MgRhO6,167,R-3c,trigonal,3D,2.5553,na,51.62278567,49.82360433,418.7809119,391.4046375,184083.9733,185937.92,0.091626658,0.085057189,1.90E-05,1.90E-05,64.220267,62.36856967
JVASP-22824,Sm3Si6N11,100,P4bm,tetragonal,3D,3.0823,na,-328.8234667,216.2204933,564.9934112,842.874558,5336.4954,14657.67893,0.331040647,0.416544691,3.440878729,3.440878729,-336.7678367,248.0053867
JVASP-22833,Rb2Ti(SiO3)3,176,P6_3/m,hexagonal,3D,3.2453,3.0582,-394.4215633,436.7502167,1022.890277,684.4456381,5614.891925,3856.613567,0.578744414,0.40200969,134.0718917,134.0718917,-406.6686667,437.6387267
JVASP-22834,Hf3Rh5,55,Pbam,orthorhombic,3D,0.0019,na,-11.37976657,-11.661557,474.1022072,477.1595602,1600669.133,1590906.567,0.015103774,0.015116094,1.94E-06,1.94E-06,-12.387087,-12.44078967
JVASP-22852,Er3(AlNi3)2,229,Im-3m,cubic,3D,0.0042,na,7.6935126,8.5865366,54.71892962,68.3862268,924460.2767,927539.88,0.002075085,0.002589236,3.32E-06,3.32E-06,7.7945438,8.4630882
JVASP-22856,Be3Cd4Si3TeO12,218,P-43n,cubic,3D,2.9482,na,-122.43167,454.16602,990.544397,384.5075652,66082.49,1864.1275,0.334450661,0.229392855,0.576794312,0.576794312,-92.005286,452.07928
JVASP-22857,Er3Ni7B2,194,P6_3/mmc,hexagonal,3D,0.0206,na,-9.639384667,-10.2418916,270.1438435,311.3892737,1032896.773,1027708.183,0.011321946,0.013034391,2.73E-06,2.73E-06,-11.883938,-11.72721367
JVASP-22862,Sc5Ge3,193,P6_3/mcm,hexagonal,3D,0.001,na,-50.451624,-51.699364,1488.03266,1503.013182,504330.6667,491828.8067,0.1147375,0.117055218,5.60E-06,5.60E-06,-47.60216833,-48.04046733
JVASP-22864,K2Li14Zr3O14,71,Immm,orthorhombic,3D,4.6816,na,-289.6416833,400.07141,1131.848256,542.0911865,14273.82227,3688.802667,0.594723252,0.310804412,3.331007434,3.331007434,-184.7100733,406.2846967
JVASP-22866,Rb3TaS4,62,Pnma,orthorhombic,3D,2.8229,na,-259.4627533,317.7735433,374.1481421,265.0865609,5212.988833,2833.433167,0.217311458,0.157569959,2.43130358,2.43130358,-280.97968,337.49919
JVASP-22868,RbBe3ZnF9,188,P-6c2,hexagonal,3D,6.3974,na,-150.7989433,432.56644,914.7261014,113.732853,40482.442,599.1715607,0.374936094,0.067991403,0.698245716,0.698245716,-153.2658033,429.43267
JVASP-22871,Ba(Ni2B)6,166,R-3m,trigonal,3D,0.0065,na,-5.948798643,-6.187827383,589.4809097,604.346863,1515808.4,1512689.567,0.017456623,0.017944041,1.86E-06,1.86E-06,-8.754304733,-8.949294
JVASP-22878,K3NbSe4,62,Pnma,orthorhombic,3D,1.8126,2.1243,-262.6807933,278.6795467,388.4384089,479.3961177,5406.179867,6771.547167,0.225570588,0.276771346,2.311014066,2.311014066,-283.0569233,285.09314
JVASP-22879,Li2ZnSiO4,14,P2_1/c,monoclinic,3D,4.0824,na,-104.6779057,442.3652567,713.760142,613.4364193,67292.07167,3164.640267,0.22790576,0.362997503,0.427026377,0.427026377,-126.5245833,445.2506667
JVASP-22880,Na2GeF6,150,P321,trigonal,3D,5.8881,9.1335,-173.1317067,524.89162,1045.157877,46.40806057,34879.59267,179.1942657,0.452297099,0.027817805,0.876743366,0.876743366,-161.5039833,516.5573367
JVASP-22882,Ba4Ru3O10,64,Cmce,orthorhombic,3D,0.0094,na,26.415366,24.439416,395.4043732,386.7256355,163321.7637,164550.5367,0.074235718,0.072876657,3.50E-05,3.50E-05,19.04412,17.57528367
JVASP-22883,K2Hg3(GeSe4)2,41,Aea2,orthorhombic,3D,0.7317,na,-77.62371333,183.0101933,410.5750312,786.2884268,72458.89633,22045.77533,0.126130012,0.373263036,0.295982467,0.295982467,-82.805872,256.9956333
JVASP-22884,Tb2Si2O7,2,P-1,triclinic,3D,4.8261,6.6034,-114.9167667,347.9637067,475.7750046,136.9993525,36425.342,1171.742863,0.205369278,0.08104403,0.47679668,0.47679668,-125.3376267,347.22808
JVASP-22885,Mg3BeAl8O16,186,P6_3mc,hexagonal,3D,5.6845,7.1845,-58.105733,405.0172033,471.1685053,576.4835909,42528.3309,3250.690232,0.166010205,0.336811627,20.60261229,20.60261229,-96.050395,454.92083
JVASP-22886,Zr3Tl2OF12,166,R-3m,trigonal,3D,4.4711,na,-436.5331633,341.1510567,173.7876946,715.7576478,911.7383,7028.392467,0.103820853,0.413249228,68.04955043,68.04955043,-435.8246567,352.0477367
JVASP-22887,NdCo9Si4,140,I4/mcm,tetragonal,3D,0.0007,na,-17.14586967,-17.25445633,193.6746583,194.8788686,643652.1733,641948.91,0.011376509,0.01148065,4.47E-06,4.47E-06,-14.729459,-14.801664
JVASP-22889,Na3In2(PO4)3,15,C2/c,monoclinic,3D,3.5328,5.7304,-74.948915,422.16386,414.1797139,77.1596304,73764.05533,455.68317,0.127442514,0.046156329,0.337442176,0.337442176,-114.90027,436.4376233
JVASP-22891,K2ErF5,62,Pnma,orthorhombic,3D,7.2563,10.4012,-100.7936637,468.90615,647.7792688,127.9390478,65764.77967,622.4685167,0.212734839,0.076524218,0.418138478,0.418138478,-137.51384,477.4308433
JVASP-22892,K2Na3TlO4,58,Pnnm,orthorhombic,3D,1.4493,na,-107.6658043,426.8120167,636.9151085,271.0513383,54175.30567,1589.68944,0.229351396,0.161376271,0.425231165,0.425231165,-109.7081233,428.79843
JVASP-22893,Y3Ge4,63,Cmcm,orthorhombic,3D,0.0056,na,7.327678733,6.3370795,254.7487419,248.2333555,1450515,1463682.367,0.005322812,0.005044689,2.00E-06,2.00E-06,10.98180607,9.970081487
JVASP-22896,SrNi5As3,63,Cmcm,orthorhombic,3D,0.0024,na,-9.880231187,-9.305001797,410.974922,403.664907,1180776.963,1174969.073,0.009717973,0.009584197,2.91E-06,2.91E-06,-13.3214998,-12.81683767
JVASP-22898,Yb11Sb10,139,I4/mmm,tetragonal,3D,0.0338,na,-17.36210033,-18.41479267,356.9830399,350.4605665,513559.5267,498703.74,0.021225597,0.021405667,5.77E-06,5.77E-06,-19.10566607,-19.66749307
JVASP-22900,Ti3Rh5,55,Pbam,orthorhombic,3D,0.0021,na,2.969301033,3.050503967,159.4760446,157.5381363,1666155.433,1667036.633,0.003574968,0.003505472,1.72E-06,1.72E-06,6.82015435,6.998661017
JVASP-22901,SmSnF7,14,P2_1/c,monoclinic,3D,5.0677,7.2727,-135.5032633,458.7577767,550.891832,102.1013174,30375.91267,604.1997753,0.250388506,0.061005574,0.581401747,0.581401747,-183.6620267,469.07375
JVASP-22902,TmGa3Ru,221,Pm-3m,cubic,3D,0.0034,na,-2.3071341,-3.3761947,12.43260146,26.60140592,2335696.1,2333724.7,0.00023133,0.000499414,1.18E-06,1.18E-06,-5.4027224,-6.2795562
JVASP-22903,KHfPdF7,52,Pnna,orthorhombic,3D,0.7938,na,-330.42141,422.4412967,743.0153176,167.9685861,5681.801432,955.0504833,0.432481828,0.100220707,714.7824217,714.7824217,-307.2509433,349.2106933
JVASP-22904,K2SmF5,62,Pnma,orthorhombic,3D,7.1383,9.6877,-93.64146933,438.7295367,464.8885485,170.7151045,52457.14533,1039.32582,0.169172563,0.101836942,0.339162063,0.339162063,-138.4214867,467.8823367
JVASP-22906,KSm(PO3)4,15,C2/c,monoclinic,3D,5.7437,na,-101.219908,345.1005833,430.241519,342.1353007,40925.199,2994.01869,0.173314315,0.201534724,0.348594421,0.348594421,-135.6488733,373.8970433
JVASP-22907,PrPtF7,14,P2_1/c,monoclinic,3D,2.4671,2.5836,-401.0658667,450.6724067,151.2682812,158.8528643,955.9832933,753.3978867,0.090343283,0.094847229,20.89510673,20.89510673,-421.41525,437.9977
JVASP-22908,Sr10P6SO24,147,P-3,trigonal,3D,3.429,na,-167.44708,345.2353833,994.9302958,90.6693674,24391.26183,743.990462,0.404701872,0.054379204,1.046622643,1.046622643,-151.01979,347.6955833
JVASP-22909,Ba3CaIr2O9,15,C2/c,monoclinic,3D,0.0376,na,-25.59253333,-21.35967937,67.75473879,48.12537234,120675.307,119392.3447,0.014493087,0.010637774,4.73E-05,4.73E-05,5.318283367,8.819002767
JVASP-22911,K7Ta(SO4)6,148,R-3,trigonal,3D,3.6316,na,-355.4133,453.9752533,4.707775923,18.09960539,37.27285067,87.658826,0.002824662,0.010856345,393.0983009,393.0983009,-349.36767,455.4734267
JVASP-22913,SrGeO3,15,C2/c,monoclinic,3D,3.4246,5.5408,-113.9215833,373.2059033,747.0280579,384.0808405,59569.24,2764.824833,0.260345769,0.227978219,0.489800719,0.489800719,-119.0302433,376.0090833
JVASP-22915,Hf5Sb3,62,Pnma,orthorhombic,3D,0.0031,na,4.173121967,4.244683833,177.6674544,176.3201668,325034.0433,326186.1,0.016734536,0.016500535,9.52E-06,9.52E-06,2.553303,3.0418574
JVASP-22917,Na2Al2As3,14,P2_1/c,monoclinic,3D,1.2488,na,-148.98919,334.7656433,1955.668625,700.7574961,50915.0019,6371.611867,0.519156214,0.406554016,0.745509834,0.745509834,-152.9924967,337.3426667
JVASP-22918,ThCo9Si2,141,I4_1/amd,tetragonal,3D,0.0024,na,-12.70283613,-12.8120431,90.15097915,91.52797974,571525.1967,570824.34,0.00646293,0.006562736,4.95E-06,4.95E-06,-13.63213557,-13.72192023
JVASP-22919,Mg4Ta2O9,165,P-3c1,trigonal,3D,4.2638,5.6716,-232.2970933,401.3530433,934.1480623,814.1821758,17362.24053,4912.2444,0.44116206,0.47681418,1.484867524,1.484867524,-237.37444,410.1684867
JVASP-22920,Ho2Si3Rh,194,P6_3/mmc,hexagonal,3D,0.0155,na,3.598776,4.694797933,49.38489219,98.26042849,1129695.987,1133050.92,0.001694068,0.003372922,2.69E-06,2.69E-06,4.317637533,4.7155299
JVASP-22921,Rb5SiAs3,62,Pnma,orthorhombic,3D,0.0263,na,-212.7486733,265.59156,1491.599566,552.1348975,33176.109,8130.702667,0.68041606,0.314835074,0.492224151,0.492224151,-130.63011,256.03364
JVASP-22922,Be3Cd4Si3SO12,218,P-43n,cubic,3D,2.9929,na,-136.13433,453.44692,1066.318968,362.8702268,57537.61,1764.8119,0.385439291,0.216131558,0.654181895,0.654181895,-169.8303,441.59683
JVASP-22923,K7Nb(SO4)6,148,R-3,trigonal,3D,2.7783,na,-355.82528,458.12575,4.306435286,28.74019664,34.01693433,136.8926167,0.002583858,0.01723763,398.532381,398.532381,-351.0425267,457.25804
JVASP-22925,Sr3(GeAs2)2,14,P2_1/c,monoclinic,3D,0.7688,na,-275.1187767,195.11512,2217.488912,978.5763994,29839.79023,24854.688,0.968449351,0.451037664,1.939103201,1.939103201,-267.2839033,180.8682033
JVASP-22926,Tb2Ba4Cd3S10,36,Cmc2_1,orthorhombic,3D,1.8615,2.69,-121.5574273,293.4119267,597.064294,573.1438679,27957.96689,5869.177073,0.200591277,0.31858659,602.6287349,602.6287349,na,na
JVASP-22927,Ca10P6SeO24,147,P-3,trigonal,3D,3.7324,na,-197.52831,375.4407267,1077.272343,121.2378009,18793.06083,919.001221,0.470654783,0.072696532,1.34471721,1.34471721,-155.0721333,380.0676033
JVASP-22929,Y2TiO5,62,Pnma,orthorhombic,3D,3.2991,3.5826,-341.9463233,376.7289433,1012.403738,961.728112,10288.92599,7823.307183,0.543178582,0.549524262,161.6733984,161.6733984,-343.1650933,380.16606
JVASP-22930,Sr3Sc(BO3)3,148,R-3,trigonal,3D,4.6906,4.8871,-484.9628533,412.4740933,159.3566789,324.7608068,630.9358733,1929.459,0.095303464,0.193330167,35.09080158,35.09080158,-471.3956933,421.1529833
JVASP-22931,Ca5Sb3,62,Pnma,orthorhombic,3D,0.179,0.0369,28.2100729,23.93909267,343.8344322,309.2273963,142112.4133,145994.6673,0.062529974,0.055150038,3.09E-05,3.09E-05,-191.0983133,229.51326
JVASP-22934,SmPtF7,14,P2_1/c,monoclinic,3D,2.4261,2.6017,-400.17836,448.7374933,241.723808,180.2535344,1522.025297,893.4600333,0.143702048,0.107494851,19.22693413,19.22693413,-407.1989533,433.4478467
JVASP-22935,Yb4Ge6Ir7,229,Im-3m,cubic,3D,0.007,na,-14.126093,-14.030751,351.6361989,344.3005282,1762176.7,1748943.8,0.007755147,0.007608105,1.62E-06,1.62E-06,na,na
JVASP-22941,Rb3SbSe4,62,Pnma,orthorhombic,3D,1.2414,2.2422,-143.36817,351.53046,790.686282,334.4904982,30205.06,2710.715867,0.310974955,0.197894407,0.644968289,0.644968289,-146.7300733,372.01492
JVASP-22942,Y2Zn17,166,R-3m,trigonal,3D,0.0083,na,-4.436428467,-5.0598535,74.23669712,90.09134492,3266347.967,3250871.3,0.000914623,0.001122602,8.56E-07,8.56E-07,-2.744325733,-3.3119918
JVASP-22943,TlSnF7,14,P2_1/c,monoclinic,3D,2.0602,na,-116.75302,491.8130967,835.2565472,53.33151075,61613.63333,222.2092933,0.288190089,0.031951539,0.54288622,0.54288622,na,na
JVASP-22944,KGaS2,9,Cc,monoclinic,3D,2.6416,4.327,-83.795937,377.6262967,571.8088159,1152.782632,58263.32867,8875.74601,0.17339043,0.620840418,0.322818316,0.322818316,-81.228469,375.13589
JVASP-22945,HoPtF7,14,P2_1/c,monoclinic,3D,2.3621,2.5542,-386.6572367,444.2257733,371.7545755,192.1468408,2467.725387,994.7236,0.219914369,0.114650336,13.72815654,13.72815654,-388.7117233,428.5154267
JVASP-22947,Nd3OsO7,63,Cmcm,orthorhombic,3D,0.0302,na,-23.82439577,-24.59853613,1696.017683,1577.429157,390955.11,385045.89,0.069658495,0.063411381,2.11E-05,2.11E-05,0.203364933,-0.224201767
JVASP-22948,YbGa7Au3,167,R-3c,trigonal,3D,0.0024,na,13.94130167,13.83684767,485.9140897,484.4686843,2711817.933,2738273.067,0.008489792,0.008454184,1.13E-06,1.13E-06,14.0414096,13.8024142
JVASP-22949,BaLi(B3O5)3,161,R3c,trigonal,3D,5.7026,na,-158.6271533,446.8002667,1127.945171,121.5663952,44811.50033,588.5872033,0.454952705,0.072638098,0.804939795,0.804939795,-143.8721967,452.2509367
JVASP-22951,Sr2SnS3F2,62,Pnma,orthorhombic,3D,1.9606,na,-168.041698,362.86758,791.9055316,936.8003163,20017.6234,7337.32887,0.363714838,0.511246578,1.134351906,1.134351906,-156.0484133,367.2175933
JVASP-22952,Nb9PO25,82,I-4,tetragonal,3D,2.1655,na,-322.8037033,322.65788,1124.292981,466.8199696,10431.65053,4151.4589,0.614157514,0.268277338,2.257958135,2.257958135,-322.4762733,323.2970267
JVASP-22956,SrCdP2O7,14,P2_1/c,monoclinic,3D,3.8811,na,-124.8295173,383.76699,650.1442652,324.3814667,41077.11433,2330.393837,0.258169958,0.191964492,0.466854519,0.466854519,-132.62279,392.4768333
JVASP-22957,Sc5Sn3,193,P6_3/mcm,hexagonal,3D,0.0045,na,-47.43688967,-48.56235333,985.3976069,1001.366813,422867.44,412773.4767,0.088284247,0.090523238,6.63E-06,6.63E-06,-48.20318533,-48.75670833