JID,Composition,Spg.numb.,Spg.symb.,Cryst.,Dimensionality,OPT SCF gap, MBJ gap,n-Seebeck,p-Seebeck,n-powerfact,p-powerfact,n-cond,p-cond,n-ZT,p-ZT,Avg.elec.mass,Avg.hole mass,n-mp-Seeb,p-mp-Seeb
JVASP-8415,BaYCrCuO5,99,P4mm,tetragonal,3D,0.0087,na,17.72205233,22.66636033,305.2851581,319.2482627,1406740.025,1418219.557,0.00673072,0.008690356,0.000105799,0.000105799,na,na
JVASP-8417,BaYMnCuO5,99,P4mm,tetragonal,3D,0.0042,na,12.18635553,12.28989267,184.5815807,189.579678,1544149.24,1557244.74,0.005927773,0.006071581,2.73E-06,2.73E-06,na,na
JVASP-8418,BaMnAlCuO5,99,P4mm,tetragonal,3D,0.0054,na,18.09990573,16.60479773,730.9566434,640.8050161,1297465.523,1301254.727,0.074460355,0.06212023,2.82E-06,2.82E-06,na,na
JVASP-8419,BaAlCuNiO5,99,P4mm,tetragonal,3D,0.0011,na,6.965888675,6.855197529,175.5346699,172.723776,1822158.667,1826701.9,0.005718721,0.005612864,1.65E-06,1.65E-06,na,na
JVASP-8420,BaYCuWO5,99,P4mm,tetragonal,2D,0.003,na,13.5425386,11.92670233,855.71622,841.1562607,1857103.877,1853988.18,0.061576618,0.056744241,2.19E-06,2.19E-06,na,na
JVASP-8421,BaYCuNiO5,99,P4mm,tetragonal,3D,1.00E-04,na,3.379810933,3.279315033,165.3553572,175.7272761,1983166.117,1989178.7,0.003233391,0.003500657,1.71E-06,1.71E-06,na,na
JVASP-8422,BaYCuMoO5,99,P4mm,tetragonal,3D,0.0036,na,-13.99851987,-15.114394,316.1409401,356.6507222,2586923.427,2573386.487,0.01162411,0.014088036,1.92E-06,1.92E-06,na,na
JVASP-8423,BaAlCoCuO5,99,P4mm,tetragonal,3D,0.0022,na,-42.19801333,-43.48782,1148.434009,1138.625297,1488199.62,1494836.937,0.206327973,0.206265594,1.79E-05,1.79E-05,na,na
JVASP-8424,BaAlCuMoO5,99,P4mm,tetragonal,3D,0.0011,na,-5.583800333,-6.101814667,1441.739853,1405.482345,1740666.527,1757339.677,0.067696447,0.067075553,5.19E-06,5.19E-06,na,na
JVASP-8425,BaAlCrCuO5,99,P4mm,tetragonal,3D,0.0186,na,-42.47412333,-44.82065533,583.1015719,516.1685025,1683255.732,1704436.643,0.069751168,0.066125718,9.87E-05,9.87E-05,na,na
JVASP-8430,UFe2,227,Fd-3m,cubic,3D,0.0063,na,-3.378948733,-3.435974,21.71294417,22.44239991,1901759.133,1900945.033,0.000470167,0.000485749,1.48E-06,1.48E-06,na,na
JVASP-8432,InAgSe2,122,I-42d,tetragonal,3D,0.6772,1.0016,-35.67709933,245.8030967,163.2833732,1790.29879,128650.2667,29749.96633,0.034784039,0.610139962,0.000705252,0.000705252,-36.91950933,230.28712
JVASP-8433,BaMnGe,129,P4/nmm,tetragonal,3D,0.014,0.0105,6.4911974,6.056304033,34.89669806,30.21808881,883858.2167,886235.1333,0.002023551,0.001712502,3.33E-06,3.33E-06,11.03621633,9.944745667
JVASP-8435,Co3SnC,221,Pm-3m,cubic,3D,0.0096,0.0451,-5.8028153,-5.4474829,37.1917923,32.761663,1104509.9,1104013,0.001177679,0.001040502,2.63E-06,2.63E-06,na,na
JVASP-8436,Pr3AlN,221,Pm-3m,cubic,3D,0.0029,na,-27.545965,-28.376148,1111.093742,1157.875035,1464315.7,1437986.5,0.030994759,0.032756263,1.86E-06,1.86E-06,na,na
JVASP-8439,Fe3Ge,225,Fm-3m,cubic,3D,0.0026,na,-2.770945533,-2.6955711,26.49898655,25.07359549,3451225.1,3450762.2,0.000302928,0.000287432,8.26E-07,8.26E-07,na,na
JVASP-8440,CrAs,62,Pnma,orthorhombic,3D,0.0203,0.0072,12.35147793,11.83334363,413.2809085,378.8552498,1393922.9,1402724.567,0.011059241,0.01002575,2.10E-06,2.10E-06,-13.9127496,-14.13865327
JVASP-8441,PbO2,136,P4_2/mnm,tetragonal,3D,0.0319,na,-48.708561,-13.88723333,433.1145486,31.74776008,183741.2833,166035.54,0.046209631,0.003137137,3.20E-05,3.20E-05,-46.54570567,-18.16493133
JVASP-8444,SrMnSn,129,P4/nmm,tetragonal,3D,0.0131,0.0004,6.687746167,6.130906533,59.18905252,54.46897315,908318.3967,911267.0267,0.002201481,0.00199752,3.37E-06,3.37E-06,1.605965567,1.162713333
JVASP-8445,Ga2FeS4,164,P-3m1,trigonal,2D,0.3416,0.0078,28.89288033,36.141353,491.0922484,666.0953079,96034.069,100966.501,0.069106941,0.092098763,0.000129469,0.000129469,-279.64288,-146.620048
JVASP-8448,Nd3PbC,221,Pm-3m,cubic,3D,0.0185,0.0777,-36.677092,-37.843099,1371.598448,1421.184775,1019617.3,992378.07,0.05534081,0.058929112,2.76E-06,2.76E-06,na,na
JVASP-8450,DyCuSb2,129,P4/nmm,tetragonal,3D,0.0111,na,2.458476333,0.938572333,819.4941342,873.8962219,4955600.233,4919097.667,0.013957815,0.012959895,8.99E-07,8.99E-07,-1.92049,-3.498684667
JVASP-8451,GeRh,198,P2_13,cubic,3D,0.0199,na,17.011639,23.496728,204.6179053,398.3803531,707051.94,721577.75,0.00794293,0.015359776,4.31E-06,4.31E-06,na,na
JVASP-8454,PbO,57,Pbcm,orthorhombic,2D,2.2918,3.3896,-162.8192833,420.1668033,1721.943534,1058.94558,68892.514,5976.4013,0.543182847,0.599132438,0.419282616,0.419282616,-197.6886033,422.8671033
JVASP-8455,CaHgPb,194,P6_3/mmc,hexagonal,3D,0.0037,na,9.685678863,8.898190966,1342.162677,1245.844745,5420693.167,5450924.667,0.011576689,0.01053422,5.10E-07,5.10E-07,na,na
JVASP-8456,GeO2,152,P3_121,trigonal,3D,0.9727,2.2028,-377.3285367,434.3371367,1905.280556,2036.370551,13051.55833,10723.7629,1.009058837,1.14048358,2.005758986,2.005758986,-378.80172,432.4361333
JVASP-8457,Sb2Ru,58,Pnnm,orthorhombic,3D,0.0116,0.0111,-70.0361559,186.92006,506.3554308,2629.681497,52323.03633,72682.22167,0.077883434,0.45273952,0.000327485,0.000327485,-46.40840067,156.7137067
JVASP-8458,InCuO2,166,R-3m,trigonal,3D,0.3844,0.5934,-117.4857367,397.83931,762.8774395,2167.229806,55353.039,13519.69513,0.268305547,1.059793748,0.103223709,0.103223709,-118.1452367,209.5193419
JVASP-8459,Ce(CoGe)2,139,I4/mmm,tetragonal,3D,0.0009,na,28.559265,28.082043,1085.99078,1061.402399,1184795.86,1190899.497,0.036590011,0.035421979,2.53E-06,2.53E-06,na,na
JVASP-8462,Ce3In,221,Pm-3m,cubic,3D,0.0002,0.0005,32.073017,32.405772,784.4873211,803.5348268,762616.68,765173.57,0.033767425,0.034480887,4.07E-06,4.07E-06,na,na
JVASP-8463,InNi,221,Pm-3m,cubic,3D,0.1508,0.0328,-8.1383117,-8.2803092,642.5311954,662.6482969,9701202.7,9664735.6,0.002743715,0.002841675,2.91E-07,2.91E-07,na,na
JVASP-8464,RbPbF3,221,Pm-3m,cubic,3D,3.4987,4.6252,-239.54712,113.84401,3304.433973,739.1025276,57585.769,57027.498,0.887563375,0.25871722,0.199682013,0.199682013,-324.2746,103.03277
JVASP-8467,La(NiSn)2,139,I4/mmm,tetragonal,3D,0.0044,na,-8.412776867,-8.269628467,380.2886423,373.9522983,4009203.567,3996163,0.003313626,0.003255483,7.39E-07,7.39E-07,na,na
JVASP-8468,NdSb2Pd,129,P4/nmm,tetragonal,3D,0.0045,na,-8.276159267,-7.761140533,171.7092947,150.1408027,3241515.067,3230638.767,0.003317466,0.002993477,1.16E-06,1.16E-06,-7.200594667,-6.5101528
JVASP-8470,Ca3PbN,221,Pm-3m,cubic,3D,0.0844,0.0488,21.739098,17.910327,147.5237706,101.2361619,312161.23,315593.93,0.022180672,0.014991654,7.85E-06,7.85E-06,na,na
JVASP-8471,U(GeRh)2,139,I4/mmm,tetragonal,3D,0.0004,na,13.97293001,14.1924124,1211.867125,1224.252037,754616.7633,756786.14,0.039644826,0.039968956,4.25E-06,4.25E-06,na,na
JVASP-8472,Np(MnGe)2,139,I4/mmm,tetragonal,3D,0.0004,0.0011,1.159420067,1.316692467,79.37452558,76.88852012,750077.0967,749823.1967,0.004387548,0.004278148,3.93E-06,3.93E-06,na,na
JVASP-8473,Mn2SnS4,65,Cmmm,orthorhombic,3D,0.0027,0.002,-4.060409767,-4.953150667,48.93609819,59.81604443,1245538.8,1241356.333,0.001615725,0.00199025,2.25E-06,2.25E-06,na,na
JVASP-8474,CeP,221,Pm-3m,cubic,3D,0.0137,na,27.164483,26.766163,1080.385902,1052.763963,1464117.8,1469463.4,0.033979592,0.033026904,1.95E-06,1.95E-06,na,na
JVASP-8477,CoGe,12,C2/m,monoclinic,3D,0.0005,na,-8.609345833,-8.908178267,346.9547653,352.7552498,3563420.5,3555334,0.0080306,0.008174696,1.44E-06,1.44E-06,na,na
JVASP-8480,FeGe,198,P2_13,cubic,3D,0.0023,na,-5.8310304,-4.9822689,19.21987126,14.0106666,565275.11,564422.7,0.001043413,0.000759921,5.47E-06,5.47E-06,-14.813239,-9.1450816
JVASP-8484,Li3In2,166,R-3m,trigonal,3D,0.0014,na,6.2163584,6.070692833,229.3746451,219.783224,5895702.767,5937770.867,0.00157368,0.001500673,4.97E-07,4.97E-07,na,na
JVASP-8487,CeCoGe,129,P4/nmm,tetragonal,3D,0.0021,na,27.33892333,26.89625733,430.089468,418.5630066,577584.9533,580603.2267,0.031067025,0.030089187,4.74E-06,4.74E-06,na,na
JVASP-8490,InSe,12,C2/m,monoclinic,2D,0.8769,1.5367,-224.7009333,144.1102167,2664.610084,1250.160763,51803.515,61195.13033,0.908057218,0.418180852,0.721023425,0.721023425,-159.2837667,232.5099067
JVASP-8492,FeS,62,Pnma,orthorhombic,2D,0.0042,na,-0.061523833,1.12531806,917.102498,918.3080458,1156320.553,1156617.74,0.025755185,0.025971561,2.95E-06,2.95E-06,3.079882433,3.8747333
JVASP-8494,UNiSn,216,F-43m,cubic,3D,0.0239,0.0089,-49.822141,-49.71876367,364.6987583,360.9635552,146922.9067,146023.4867,0.06152537,0.060829895,2.02E-05,2.02E-05,54.382478,54.80471
JVASP-8499,CeInNi,189,P-62m,hexagonal,3D,0.0002,na,45.144393,43.89803533,2397.423432,2345.197279,701643.8067,713387.08,0.108566719,0.103730314,5.04E-06,5.04E-06,na,na
JVASP-8500,VRu3C,221,Pm-3m,cubic,3D,0.0012,na,-6.8539549,-6.6407506,155.6582417,145.9836528,3313520.3,3310319.3,0.001752874,0.001646282,8.69E-07,8.69E-07,na,na
JVASP-8501,Pd3(PbS)2,166,R-3m,trigonal,3D,0.0081,na,-20.39314433,-9.2568646,485.6013162,360.4493605,721623.0867,709224.2367,0.016891239,0.012774918,5.27E-06,5.27E-06,na,na
JVASP-8502,Y4GaCo4,12,C2/m,monoclinic,3D,1.00E-04,na,-18.12411553,-17.94565067,1340.78024,1338.590729,937651.9533,930598.5767,0.037095104,0.037352154,3.56E-06,3.56E-06,na,na
JVASP-8503,Tm3SnC,221,Pm-3m,cubic,3D,0.0395,0.0683,-39.546414,-41.442485,2043.102504,2185.806012,1306399.3,1272682.4,0.069934151,0.076967149,2.11E-06,2.11E-06,na,na
JVASP-8504,Th(GePt)2,139,I4/mmm,tetragonal,3D,0.0045,na,-2.042640343,-2.30446924,39.03711494,40.35650017,4906638.733,4901430.9,0.000386103,0.000407602,6.05E-07,6.05E-07,na,na
JVASP-8505,UZnNi4,216,F-43m,cubic,3D,0.0048,na,11.595972,10.71947467,210.5865974,180.4173162,1566088.9,1570114.1,0.006913271,0.005912134,1.69E-06,1.69E-06,na,na
JVASP-8507,Ce(NiSn)2,139,I4/mmm,tetragonal,3D,0.0007,na,42.97539667,42.47835467,3158.721233,3111.867998,1709807.533,1724394.167,0.080681168,0.078901796,1.68E-06,1.68E-06,na,na
JVASP-8508,MnSnAu,216,F-43m,cubic,3D,0.1026,0.0026,0.96298557,0.863042203,5.290002064,4.253679826,5704482.9,5710849.7,3.77E-05,3.03E-05,4.92E-07,4.92E-07,-105.349,-103.90898
JVASP-8510,Cr2As,189,P-62m,hexagonal,3D,0.0029,na,7.386079233,6.6794763,50.35319269,47.66661744,987297.7133,989385.1667,0.002350525,0.001893337,3.96E-06,3.96E-06,na,na
JVASP-8511,TaRu3C,221,Pm-3m,cubic,3D,0.0503,0.0176,-2.8345844,-2.6151702,26.16354288,22.2532217,3256250.2,3253815.9,0.000309432,0.000263334,8.84E-07,8.84E-07,na,na
JVASP-8514,SiSe2,15,C2/c,monoclinic,3D,1.6139,2.5077,-318.9537633,41.81677567,3257.782339,566.1205732,30418.16867,289514.88,1.377544296,0.060052672,0.705133176,0.705133176,-323.93042,318.1051967
JVASP-8515,Sm3(Ge2Ru)2,12,C2/m,monoclinic,3D,0.0005,na,3.884810667,4.492685633,168.3430629,176.9712317,1423003.567,1422662.1,0.006501794,0.006936067,2.45E-06,2.45E-06,na,na
JVASP-8518,TlInSe2,140,I4/mcm,tetragonal,3D,0.9733,1.5472,-187.6509933,154.3998667,2637.105902,961.1183248,71883.505,43715.71967,0.782946248,0.377044679,0.543885017,0.543885017,-125.7685067,164.4565867
JVASP-8520,Zn(InS2)2,156,P3m1,trigonal,2D,0.5177,0.9293,-53.40738033,60.37740667,277.485552,1597.72597,98091.53567,32270.01964,0.072352654,0.64251362,0.00260036,0.00260036,-59.22151933,66.56153
JVASP-8522,Yb3SnC,221,Pm-3m,cubic,3D,0.0346,0.0205,-5.2120555,2.7653984,5.998614351,1.686525755,220817.19,220535.02,0.000626397,0.000175957,1.50E-05,1.50E-05,na,na
JVASP-8525,SrAl2,74,Imma,orthorhombic,3D,0.0003,0.0006,-17.242307,-15.035005,357.7617694,262.041954,1293686.9,1267478.667,0.011338041,0.008060363,2.49E-06,2.49E-06,-12.82227953,-10.3480982
JVASP-8528,NbRu3C,221,Pm-3m,cubic,3D,0.0087,0.0162,1.9337084,2.0809098,13.11104982,15.19394661,3506351.9,3508844.2,0.000144834,0.000167974,8.16E-07,8.16E-07,na,na
JVASP-8529,U(SiCu)2,139,I4/mmm,tetragonal,3D,0.0017,na,4.4654766,4.662692567,80.94095952,87.89314313,1218645.567,1219377.4,0.002084765,0.00225906,2.41E-06,2.41E-06,na,na
JVASP-8531,DyInPt,189,P-62m,hexagonal,3D,0.006,na,16.37097833,16.493689,2161.849202,2174.046599,2601389.767,2605725.033,0.037935551,0.038266587,1.30E-06,1.30E-06,16.98125567,17.34715533
JVASP-8532,InAgTe2,122,I-42d,tetragonal,3D,0.6646,0.9722,-38.75246067,241.8130067,184.5229616,2369.072418,122420.5467,40515.23667,0.035556021,0.779505332,0.00053052,0.00053052,-42.264168,243.3420967
JVASP-8533,NaO3,44,Imm2,orthorhombic,3D,0.0294,0.0061,-320.9580967,357.00489,759.3511467,575.1558245,6685.438967,4150.0818,0.409826838,0.309080812,0.807507885,0.807507885,-328.5197267,385.70372
JVASP-8537,HfPbO3,221,Pm-3m,cubic,3D,2.5393,3.5811,-150.36795,439.57441,1892.598166,2877.692779,83704.317,14892.912,0.566912895,1.520509894,0.309564361,0.309564361,-145.78267,429.05425
JVASP-8538,CeNiSb2,129,P4/nmm,tetragonal,3D,0.0017,na,15.27333773,14.67670747,145.4745765,141.0591555,1112820.277,1113174.83,0.017792179,0.01735968,4.77E-06,4.77E-06,na,na
JVASP-8539,TlInS2,166,R-3m,trigonal,3D,0.734,1.4126,-141.2542867,203.4148067,2074.711538,1892.513603,103040.53,56947.994,0.537928555,0.651294089,0.273323087,0.273323087,-160.78751,190.30568
JVASP-8540,InAsF6,148,R-3,trigonal,3D,3.0429,2.4604,-301.21597,443.6642333,1755.054241,991.5938504,18874.20933,5026.0816,0.876280547,0.575935505,1.134314727,1.134314727,-292.77674,432.1964467
JVASP-8545,ZrSnPd,216,F-43m,cubic,3D,0.0607,0.0596,-34.96301767,77.82719933,110.3044939,581.1602745,90235.07567,95947.379,0.010045469,0.055359915,0.000173013,0.000173013,-15.951244,49.955908
JVASP-8546,InCuS2,122,I-42d,tetragonal,3D,0.7214,0.6896,-38.13577767,215.38211,172.3162449,1328.327683,118250.0233,28600.15033,0.038606791,0.37022895,0.000365711,0.000365711,-42.703117,219.2791433
JVASP-8548,CeCuSn,194,P6_3/mmc,hexagonal,3D,0.0005,na,39.762359,39.583739,707.6366598,707.9671615,348009.82,350624.0733,0.066750389,0.066657636,9.53E-06,9.53E-06,na,na
JVASP-8550,InNi3,221,Pm-3m,cubic,3D,0.0098,0.0094,-3.2687139,-3.1706014,31.51841483,29.6437856,2949922.1,2948834.3,0.000414789,0.000390395,9.73E-07,9.73E-07,na,na
JVASP-8551,ThNiSn,216,F-43m,cubic,3D,0.0449,0.3721,-241.86839,304.44473,3586.216451,3725.812725,61302.512,40197.968,1.008734844,1.001712818,0.00653049,0.00653049,-244.58873,297.78218
JVASP-8552,TlInTe2,140,I4/mcm,tetragonal,3D,0.0474,0.9883,-147.7798433,150.90714,2541.011781,965.163473,112799.68,45752.82967,0.587627789,0.35111531,0.210975732,0.210975732,na,na
JVASP-8554,InCuSe2,122,I-42d,tetragonal,3D,0.6206,0.6442,-44.72471433,201.79483,215.1975327,1342.207593,106981.37,32943.439,0.050466663,0.362202591,0.000309857,0.000309857,-51.97372533,216.2603567
JVASP-8555,NaCl,221,Pm-3m,cubic,3D,4.3432,7.5038,-98.224877,415.92545,650.047711,3512.324454,67375.538,20303.16,0.208125816,1.709456142,0.362829338,0.362829338,-99.740118,410.38228
JVASP-8556,CrCl2,58,Pnnm,orthorhombic,1D,0.0018,0.4551,-54.035185,-49.44009567,888.7976409,700.631559,294345.4967,281394.57,0.094592926,0.076482016,1.11E-05,1.11E-05,-376.7519333,270.0600667
JVASP-8557,TlI,63,Cmcm,orthorhombic,3D,2.2039,2.8741,-162.20676,338.2029033,2146.216753,2755.417768,80751.31933,25789.47723,0.58211714,1.247228882,0.253744882,0.253744882,-173.0196,306.0162567
JVASP-8559,TlBr,221,Pm-3m,cubic,3D,2.0226,2.833,-132.5614,287.0083,1896.263273,4185.86929,107910.69,50815.564,0.454553733,1.306215363,0.228516339,0.228516339,-124.93487,329.1951
JVASP-8561,AgI,186,P6_3mc,hexagonal,3D,1.2845,2.8488,-59.68463333,278.6141233,374.8421244,1805.185785,104913.68,23265.64867,0.092242353,0.85377928,0.186262071,0.186262071,-60.76388833,289.23947
JVASP-8563,LiI,225,Fm-3m,cubic,3D,4.5814,5.3726,-302.87859,405.41764,3902.785691,4271.421898,42543.925,25987.66067,1.525355319,2.055548067,0.552003394,0.552003394,-204.36245,393.88348
JVASP-8564,KI,221,Pm-3m,cubic,3D,3.6315,5.6784,-91.193865,359.30139,616.1267924,3661.95923,74086.461,28365.844,0.179624026,1.643094544,0.292742232,0.292742232,-84.482782,365.19194
JVASP-8566,AgI,225,Fm-3m,cubic,3D,0.3885,2.0786,-138.04786,377.56187,1885.437781,8176.147347,98935.65833,57355.15433,0.510622546,3.23977626,0.267657437,0.267657437,-144.12223,382.7013
JVASP-8567,Li2FeBr4,65,Cmmm,orthorhombic,3D,0.0079,0.0048,25.06385867,21.527575,47.31838883,45.59900855,85337.31067,86019.113,0.010988528,0.009123117,6.92E-05,6.92E-05,na,na
JVASP-8568,Tb6FeBi2,189,P-62m,hexagonal,3D,0.0036,na,-9.662041567,-10.14566087,69.75669695,75.44018186,670278.3767,667217.3867,0.004126436,0.004461912,4.09E-06,4.09E-06,-9.536910367,-9.819311467
JVASP-8569,GaBiO3,221,Pm-3m,cubic,3D,1.3525,2.2777,-133.43979,417.96987,1782.689326,2629.916793,100116.34,15054.005,0.481564648,1.362875245,0.270464958,0.270464958,-115.6719,416.38111
JVASP-8570,Li2CoCl4,65,Cmmm,orthorhombic,3D,0.9222,na,45.39953233,44.880095,252.1004907,248.8157126,62690.82633,63658.766,0.057085049,0.055887061,0.000133592,0.000133592,na,na
JVASP-8571,Ag3SI,146,R3,trigonal,3D,0.6611,1.5761,-63.171207,406.42817,401.1187999,2957.639936,100510.49,17883.761,0.101498066,1.579388961,0.199868054,0.199868054,-54.01548333,425.3714667
JVASP-8574,BiOF,129,P4/nmm,tetragonal,3D,3.258,5.0688,-130.5635567,380.1134733,956.1449523,1692.827196,54633.685,12748.97447,0.328060002,0.900731223,0.621663929,0.621663929,-134.5275833,364.9711633
JVASP-8575,AlBiO3,221,Pm-3m,cubic,3D,2.0586,2.8487,-141.09851,366.77898,1885.574655,3130.630806,94710.663,23271.425,0.528320012,1.515664732,0.29093379,0.29093379,-116.30575,401.07445
JVASP-8576,K2Os(Cl2O)2,139,I4/mmm,tetragonal,3D,1.6054,2.038,-450.71945,358.8956667,443.223141,1330.672699,2176.034767,11425.40467,0.263933811,0.712069781,8.670391208,8.670391208,-445.66194,379.8106567
JVASP-8578,TlCl,221,Pm-3m,cubic,3D,2.2082,3.1138,-134.9145,226.41503,1800.638052,2125.980753,98925.708,41471.412,0.482019029,0.795224578,0.259679876,0.259679876,-135.73307,229.42336
JVASP-8579,HgI2,36,Cmc2_1,orthorhombic,3D,1.7662,2.593,-225.6447,395.7253733,1537.237764,1851.390453,33487.81667,12425.74913,0.643511897,0.984054591,1.277326353,1.277326353,-214.8549033,479.1843233
JVASP-8580,TlI,221,Pm-3m,cubic,3D,2.0399,2.7173,-95.896411,328.613,825.911106,5487.266589,89810.807,50814.374,0.206378565,2.117345522,0.256276527,0.256276527,-198.79731,376.98538
JVASP-8581,Li3Bi,225,Fm-3m,cubic,3D,0.1942,0.893,-144.35312,260.52051,1748.047999,6078.070965,83888.22467,89553.36867,0.519763229,1.93049437,0.251837125,0.251837125,-168.17548,234.34388
JVASP-8582,CuBr,194,P6_3/mmc,hexagonal,3D,0.3023,1.1372,-67.73738567,349.8578933,486.9050577,2833.778049,109341.485,21680.25928,0.113188459,1.293666601,0.268286706,0.268286706,-65.59288533,335.60062
JVASP-8583,AgBr,225,Fm-3m,cubic,3D,1.0021,2.5156,-61.159557,360.67448,426.3796011,6590.673682,113990.2633,50663.94233,0.099742327,2.525026957,0.221067602,0.221067602,-59.266827,406.14307
JVASP-8584,UI3,63,Cmcm,orthorhombic,2D,0.0004,na,5.921469,8.752465,204.1773225,224.0931815,48746.51777,50430.81093,0.072593528,0.072002185,0.00034309,0.00034309,na,na
JVASP-8586,KCl,221,Pm-3m,cubic,3D,5.348,8.5163,-109.25088,434.98275,717.7089543,2957.586619,60131.007,15631.239,0.242807774,1.503681457,0.401069663,0.401069663,-106.81439,444.01978
JVASP-8587,TbCl3,63,Cmcm,orthorhombic,2D,3.581,4.8299,-206.5231967,287.6390467,1080.67424,1336.910717,23450.10333,16509.5853,0.49406941,0.636562476,1.130779408,1.130779408,-263.9157667,308.96991
JVASP-8588,RbCl,221,Pm-3m,cubic,3D,5.3358,7.5821,-90.429259,459.96883,571.2989287,2342.179615,69862.716,11070.402,0.177455485,1.265300576,0.35526691,0.35526691,-100.98285,474.92331
JVASP-8589,BiF3,225,Fm-3m,cubic,3D,4.2451,5.5209,-278.34944,430.78416,3691.719027,1962.618852,47648.35767,10575.88,1.44896089,1.051177089,0.591343083,0.591343083,-275.35981,481.89274
JVASP-8590,RbI,221,Pm-3m,cubic,3D,3.7482,5.0517,-87.915443,375.10843,595.3808766,3427.449978,77030.824,24358.889,0.173750528,1.593240414,0.301461179,0.301461179,-83.050318,387.25092
JVASP-8591,RbBr,221,Pm-3m,cubic,3D,4.4097,6.2229,-96.294692,420.85954,663.7898802,2872.804047,71585.643,16219.283,0.206643081,1.460143133,0.374945934,0.374945934,-91.155232,437.14125
JVASP-8592,Rb2TeBr6,225,Fm-3m,cubic,3D,1.9247,2.3931,-208.82002,327.8775,2584.553428,1818.55702,59270.86267,16916.23433,0.94825201,0.983303462,0.441761213,0.441761213,-221.58888,346.8698
JVASP-8594,K2SnCl6,225,Fm-3m,cubic,3D,2.1673,3.7046,-118.92891,384.22317,721.8172956,1993.133184,51033.15367,13501.102,0.266041366,1.096386468,0.467723474,0.467723474,-133.74754,408.4645