JID,Composition,Spg.numb.,Spg.symb.,Cryst.,Dimensionality,OPT SCF gap, MBJ gap,n-Seebeck,p-Seebeck,n-powerfact,p-powerfact,n-cond,p-cond,n-ZT,p-ZT,Avg.elec.mass,Avg.hole mass,n-mp-Seeb,p-mp-Seeb
JVASP-24348,LiCaNiF6,163,P-31c,trigonal,3D,0.8148,na,6.742289333,3.831089667,3.422940535,2.738257305,17616.028,17646.757,0.001915265,0.001542409,0.000123615,0.000123615,3.1337,-0.1575319
JVASP-24356,Cu6PbO8,225,Fm-3m,cubic,3D,0.0187,na,2.157623133,3.559454267,2.923163516,7.985149503,627916.55,630254.88,0.000151305,0.000417154,4.67E-06,4.67E-06,10.650306,13.091758
JVASP-24357,Sr3CaIrO6,167,R-3c,trigonal,3D,2.5424,na,16.75259767,16.73526867,163.4852135,167.7668709,85314.88767,85901.43167,0.037802021,0.038525779,4.08E-05,4.08E-05,71.80010433,69.10805067
JVASP-24360,Rb2Mn(PS3)2,14,P2_1/c,monoclinic,3D,1.0149,na,-250.0240833,297.18763,536.5592944,367.9074154,7589.13344,4480.172767,0.298520578,0.212527743,38.30141645,38.30141645,-259.0997167,333.5654967
JVASP-24364,SrLiNiF6,163,P-31c,trigonal,3D,0.7879,na,18.44340193,15.10166577,15.06536627,11.28582366,31472.254,31647.56933,0.008038739,0.006018526,6.98E-05,6.98E-05,13.49173953,9.93821949
JVASP-24369,LiV2F6,136,P4_2/mnm,tetragonal,3D,1.2452,na,3.394839333,4.040821333,146.2918636,148.7854649,75396.543,76169.165,0.043364268,0.043616065,8.20E-05,8.20E-05,-2.7536,-2.874393667
JVASP-24375,Rb2NaCoF6,225,Fm-3m,cubic,3D,1.2241,0.0142,-395.14148,511.72365,724.2207611,120.36914,4638.3736,459.6679033,0.42616965,0.072171258,3.933243693,3.933243693,-362.86608,470.90937
JVASP-24378,Ta4S9Br8,107,I4mm,tetragonal,0D,1.1938,na,-387.6721333,305.6175367,422.5461082,199.8271305,3279.164433,2221.67522,0.249200372,0.119604605,17.25921462,17.25921462,-365.1262567,277.9135633
JVASP-24390,NiF2,136,P4_2/mnm,tetragonal,3D,0.0179,0.0112,-36.5285011,-36.751618,1759.400991,1755.026566,1108773.593,1102290.613,0.066665615,0.066411873,2.52E-06,2.52E-06,-304.6976333,112.2755207
JVASP-24396,K2NaFeF6,225,Fm-3m,cubic,3D,0.6663,na,55.355378,52.075659,88.36313273,79.18383573,28837.092,29198.93333,0.050653848,0.045360133,5.83E-05,5.83E-05,na,na
JVASP-24409,RbMnF3,221,Pm-3m,cubic,3D,1.6427,na,-393.53207,318.18656,1280.830756,2017.537943,8270.4947,19927.74,0.717543229,1.038653424,3.013018893,3.013018893,na,na
JVASP-24414,MnSnF6,148,R-3,trigonal,3D,1.0271,na,-115.5961533,405.0730033,538.6657823,553.5273946,40275.148,3376.539133,0.20621338,0.326592068,0.618081279,0.618081279,na,na
JVASP-24417,ScTaO4,13,P2/c,monoclinic,3D,4.0686,5.065,-430.98927,444.5557,960.2194785,951.4473546,5093.035533,4755.3624,0.557356347,0.547317512,3.179034569,3.179034569,-441.0302967,444.6244067
JVASP-24425,Rb2LiVS4,70,Fddd,orthorhombic,3D,1.493,1.8119,-288.5303067,337.4488433,901.8426707,1049.362785,9315.823,10999.34077,0.469045861,0.563842408,2.205953908,2.205953908,na,na
JVASP-24426,KHoBeF6,11,P2_1/m,monoclinic,3D,7.7674,na,-136.8310433,407.6541433,691.1830934,219.3506142,36426.63033,1361.8059,0.289448181,0.130711514,0.598808745,0.598808745,-141.1079333,436.4091167
JVASP-24429,NiPtF6,148,R-3,trigonal,3D,0.9005,1.1746,-414.69038,445.80343,1060.063662,205.5377441,6171.066967,1030.026053,0.607974035,0.122318871,4.243684336,4.243684336,-436.1822433,446.2163
JVASP-24435,CrHgF6,148,R-3,trigonal,3D,1.2082,na,36.99047167,35.56446133,123.0218196,115.5786462,83106.367,83558.883,0.041339491,0.03845393,2.84E-05,2.84E-05,26.29691333,25.76722233
JVASP-24447,KrF2,136,P4_2/mnm,tetragonal,0D,2.4244,4.0063,-394.28128,301.7827633,3741.800965,1111.722381,21196.80661,12852.7726,1.813134572,0.589650421,4.031070699,4.031070699,-424.6463167,349.3182267
JVASP-24462,Er3SiCuS7,173,P6_3,hexagonal,3D,1.9781,na,-210.9837033,268.9529733,1343.080575,849.2782633,29009.76267,12195.6642,0.634601098,0.470166135,0.858379427,0.858379427,-205.1971433,280.55166
JVASP-24464,Ni(NF7)2,87,I4/m,tetragonal,0D,1.6538,na,-472.7280167,489.4700433,21.4271803,24.47714796,99.924714,102.425881,0.012850596,0.014685017,272.9443303,272.9443303,-480.0604067,482.3983233
JVASP-24465,K2Sr(PO3)4,82,I-4,tetragonal,3D,5.9415,8.4333,-142.6339967,479.6728633,941.0605914,152.4701003,46432.82967,659.29122,0.361382404,0.091137972,0.643846752,0.643846752,-130.9951067,485.99304
JVASP-24466,In7GeIrO8,216,F-43m,cubic,3D,0.4999,na,-45.748891,454.66595,243.1985971,944.6397829,116198.34,4569.6335,0.0553496,0.540068986,0.093093463,0.093093463,-45.534919,448.33704
JVASP-24471,BaErAgS3,12,C2/m,monoclinic,3D,0.9813,na,-148.56744,242.86571,1258.93825,1096.474424,45973.94733,21925.32467,0.445666482,0.530098917,0.741937934,0.741937934,-127.252853,241.7344933
JVASP-24483,KNa2AuO2,58,Pnnm,orthorhombic,3D,2.2799,na,-297.8190233,500.8444933,1410.899542,338.0391977,15768.15367,1383.1998,0.71936176,0.201100513,1.699923653,1.699923653,-280.2932333,496.5570233
JVASP-24487,Na4Al3Ge3BrO12,218,P-43n,cubic,3D,3.9606,na,-97.532908,442.83354,568.622164,21.31330025,59775.255,108.68502,0.195232854,0.01278135,0.348784464,0.348784464,na,na
JVASP-24860,BaAlBO3F2,190,P-62c,hexagonal,3D,6.653,na,-88.52421633,453.8517867,541.2736496,747.6255927,68913.75667,3901.0719,0.165597155,0.439977388,0.319368128,0.319368128,-117.79394,471.9134467
JVASP-24872,K2MnF4,139,I4/mmm,tetragonal,3D,1.4051,na,-358.6204833,175.3116833,637.6664803,754.3075816,8703.136833,21913.63043,0.340156509,0.34889122,769.4599883,769.4599883,-125.9158867,347.5279533
JVASP-24901,SbSCl9,12,C2/m,monoclinic,3D,1.4029,2.4476,-148.8013867,347.4719867,639.9112611,553.5002192,28289.57867,4370.7892,0.286721191,0.319325451,0.646049848,0.646049848,-212.89302,392.70621
JVASP-24905,K2Cd(AuS)4,72,Ibam,orthorhombic,3D,1.964,2.9217,-115.5456533,278.4057267,912.5806266,1395.075132,58051.77133,18460.305,0.27441608,0.731501371,0.459905042,0.459905042,-212.89369,306.79738
JVASP-24909,Na2TiS2O,14,P2_1/c,monoclinic,3D,2.4427,na,-420.4813633,385.1595267,502.3694575,472.8469641,2667.087367,3191.548967,0.294816953,0.277962579,10.82901866,10.82901866,-415.2263633,392.5388767
JVASP-24911,CaGaBO4,37,Ccc2,orthorhombic,3D,4.088,na,-124.3649467,473.2170567,796.0562807,275.4139646,51689.055,1312.938847,0.291344077,0.16393728,0.533889238,0.533889238,-130.3874133,481.9538367
JVASP-24912,BCl(OF2)2,9,Cc,monoclinic,3D,2.0697,2.2474,-390.9162267,466.4960167,313.7789748,76.29626784,1922.29943,369.7218467,0.186699062,0.045722001,12.63415971,12.63415971,-399.3860067,523.8484333
JVASP-24915,CuAsPbO4,2,P-1,triclinic,3D,1.9728,1.7582,-186.5006133,362.3220567,1207.421765,297.1053714,33990.017,2300.54183,0.466098497,0.176783005,0.586966866,0.586966866,-224.86292,382.4285833
JVASP-24924,KGaAs2O7,2,P-1,triclinic,3D,2.9187,4.6206,-111.8148367,360.2659033,701.8713937,230.1693383,56232.79233,1799.0904,0.244970433,0.137162391,0.446396386,0.446396386,-116.55784,401.2113767
JVASP-24927,HfVF6,225,Fm-3m,cubic,3D,1.639,0.3969,-378.18144,501.87413,2048.758689,517.5043113,14324.86,2054.586133,1.072725891,0.307472341,1.523803264,1.523803264,na,na
JVASP-24933,InTeClO3,14,P2_1/c,monoclinic,2D,3.1153,na,-308.34019,401.4102233,1784.562859,721.4670121,18511.8762,4415.473327,0.874907997,0.411910068,1.710910044,1.710910044,-316.2527467,400.2859067
JVASP-24934,BiO2,15,C2/c,monoclinic,3D,0.9704,1.4463,-221.3914767,383.73275,1614.378651,1094.363815,32358.871,7623.856167,0.694476973,0.629033182,0.856693335,0.856693335,-233.33161,415.8341633
JVASP-24935,CaSeO3,14,P2_1/c,monoclinic,3D,4.3574,6.0164,-315.7026233,372.7699333,977.1468464,882.1913142,13283.625,5536.297367,0.512271129,0.500705522,21.56144422,21.56144422,-313.63845,399.3312833
JVASP-24936,Dy3SiCuS7,173,P6_3,hexagonal,3D,1.8684,na,-218.4131333,275.2729167,1371.474868,821.0561662,27344.09833,11330.7017,0.647082121,0.458078489,0.938807313,0.938807313,-203.7211333,289.8878867
JVASP-24944,Sm3CuSnS7,173,P6_3,hexagonal,3D,1.6005,2.147,-262.2384733,278.5413433,750.3753065,842.8318127,10448.5719,12183.45453,0.411258356,0.462337123,2.306706392,2.306706392,-252.19105,275.8424433
JVASP-24945,NaLi2PO4,62,Pnma,orthorhombic,3D,5.6192,na,-130.8478467,448.86781,898.9259117,423.281161,54345.59167,2171.526833,0.326805228,0.250985771,0.619484284,0.619484284,-142.2146733,462.2546167
JVASP-24949,LiMnF4,14,P2_1/c,monoclinic,3D,0.8121,0.0012,-392.00331,301.8679833,635.4926383,847.3117959,4145.7537,8266.183167,0.373100133,0.45610679,5.383132867,5.383132867,-382.6126033,315.5751367
JVASP-24951,Rb2NaFeF6,225,Fm-3m,cubic,3D,0.6266,0.5904,59.934576,56.439166,65.68677564,59.07318485,18286.18333,18545.10133,0.038464035,0.03457622,8.94E-05,8.94E-05,na,na
JVASP-24953,KNaGeO3,33,Pna2_1,orthorhombic,3D,3.2392,na,-106.4051377,433.2103167,706.0797069,577.8816758,64616.94467,3309.212757,0.236462103,0.33900385,0.443622075,0.443622075,-118.5273367,444.3477767
JVASP-24954,Nb2Tl5S4Br9,71,Immm,orthorhombic,3D,1.6204,1.9498,-325.2781833,303.0416067,400.7644487,776.271436,4438.9361,8312.63612,0.234649983,0.410328793,20.04595423,20.04595423,-311.5594467,303.6070167
JVASP-24955,KLiSi2O5,4,P2_1,monoclinic,3D,5.0282,3.2012,-125.9915367,455.1952667,826.412328,152.4975544,52683.52967,737.4842133,0.302494117,0.091110708,0.541608264,0.541608264,-122.8162833,445.98392
JVASP-24958,Rb2MnF6,225,Fm-3m,cubic,3D,2.4755,1.6287,-488.31168,463.04041,114.0029732,100.432952,478.1035333,468.4232467,0.068186616,0.060192647,30.63085963,30.63085963,na,na
JVASP-24961,K4Ba(VS4)2,72,Ibam,orthorhombic,3D,1.5041,na,-312.5792433,342.6422633,357.1137054,643.0105366,3865.8644,6564.741433,0.209769696,0.373697964,9.948855988,9.948855988,-348.92918,353.4478
JVASP-24968,Pr4S3NCl3,186,P6_3mc,hexagonal,3D,3.0194,3.7424,-380.7053067,337.8362467,673.0663961,894.196708,4703.330167,7830.285567,0.394840738,0.502636536,4.348457045,4.348457045,-389.7237533,364.3185833
JVASP-24974,RbP(OF)2,62,Pnma,orthorhombic,3D,5.5869,8.3899,-124.49365,420.13492,807.5014921,168.8095888,53206.35833,1016.920397,0.295977711,0.101000186,0.572440497,0.572440497,-129.3121767,416.4730433
JVASP-24983,Ba2HoB2ClO6,11,P2_1/m,monoclinic,3D,4.2221,na,-248.4865967,296.0509233,1381.230076,588.4216509,22268.44567,6068.4455,0.671608141,0.330580828,1.070281089,1.070281089,-179.8944633,305.0810667
JVASP-24984,Na2Cd(SO4)2,15,C2/c,monoclinic,3D,4.1646,na,-148.9387267,364.7700867,931.6197967,625.7111544,41934.89433,4723.260933,0.368484221,0.366247317,0.709465282,0.709465282,-138.51416,378.6884167
JVASP-24985,K9U6BiO24,221,Pm-3m,cubic,3D,1.7344,na,-483.77804,287.75907,7.905578191,779.558647,33.778576,9414.3589,0.004738404,0.438926501,435.5456086,435.5456086,-598.53053,293.93213
JVASP-24990,SrLi(BS2)3,9,Cc,monoclinic,3D,2.8807,na,-341.68984,331.3308367,395.0381889,577.322123,3408.4073,5255.781633,0.233990898,0.338010279,4.866818112,4.866818112,-354.3510367,339.3099167
JVASP-24992,K2RbMn2F7,139,I4/mmm,tetragonal,3D,1.5694,na,-378.1488433,322.1501833,752.2847021,1007.208522,7549.273837,17867.88,0.401794259,0.468184835,699.0952149,699.0952149,-167.1039767,324.0206833
JVASP-24999,Ba2InClO3,129,P4/nmm,tetragonal,3D,2.1495,3.9387,-102.2171917,326.0691967,999.9413759,1316.372301,57551.629,18311.98314,0.291941745,0.600807635,0.395898006,0.395898006,-92.33742333,436.3134533
JVASP-25000,As(IF3)2,12,C2/m,monoclinic,0D,0.0289,1.3718,140.1717147,244.5218067,188.351115,835.7062885,1330.702477,9928.963067,0.109151834,0.432043453,0.14247094,0.14247094,-32.34566,272.1743233
JVASP-25001,PrTa3O9,11,P2_1/m,monoclinic,3D,3.3413,4.3435,-272.7372067,407.48412,1802.997922,312.5151058,20778.84193,1980.571933,0.781451342,0.185909929,2.579343713,2.579343713,-237.4821967,422.9854333
JVASP-25002,DySeClO3,62,Pnma,orthorhombic,3D,4.3553,na,-413.2767233,373.2613567,631.9324825,545.8002526,3719.964917,3835.133133,0.353234066,0.319228842,19.42385532,19.42385532,-410.8597433,382.85111
JVASP-25004,Pr3Si2S8I,15,C2/c,monoclinic,3D,2.611,3.2703,-295.6472533,284.09047,715.858544,618.7067124,8185.904467,7355.611567,0.408783918,0.346567838,3.552014232,3.552014232,-296.4137967,306.8699667
JVASP-25009,SrCrF4,140,I4/mcm,tetragonal,3D,1.7437,0.6957,-329.03233,408.01275,440.5828889,421.1506078,4244.187367,2419.035667,0.257779967,0.249532075,4.718800538,4.718800538,-286.8008333,464.92946
JVASP-25012,Zn3TeAs2Pb3O14,150,P321,trigonal,3D,3.0746,4.3933,-121.5487933,460.3035367,709.3446066,229.8623396,47683.966,1089.605917,0.27031557,0.137134627,0.516544165,0.516544165,-132.0543033,458.75063
JVASP-25015,K4SnSb2F14,2,P-1,triclinic,3D,4.0266,6.4104,-315.92498,347.8799867,603.7733789,55.16777371,6768.548513,456.1940833,0.347988494,0.033074064,12.37684159,12.37684159,-303.0615967,348.88408
JVASP-25017,KNaPrNbO5,129,P4/nmm,tetragonal,3D,3.4317,4.4282,-186.61654,410.9847433,785.3732081,951.3355627,21987.99733,10764.90753,0.368248037,0.491733108,0.800364139,0.800364139,-199.8699567,426.5951867
JVASP-25020,IClOF,14,P2_1/c,monoclinic,1D,1.8459,na,-279.45245,353.2556167,528.7268723,115.5154042,7515.718733,1008.353586,0.295478822,0.06895718,4.318558211,4.318558211,-306.7284133,383.0654267
JVASP-25021,K5Au(IO)2,55,Pbam,orthorhombic,3D,2.2374,3.3661,-156.79858,426.8916967,999.8070298,393.3835132,41743.087,2194.61163,0.39617831,0.234436949,0.819920454,0.819920454,-145.42345,419.1143967
JVASP-25022,Nd5As2ClO10,12,C2/m,monoclinic,3D,3.337,4.7153,-302.3316133,341.95939,1194.309789,288.4475591,10637.86153,2469.053433,0.620364135,0.171897137,2.477320391,2.477320391,-250.6048633,350.7779167
JVASP-25025,Ba5P3ClO12,176,P6_3/m,hexagonal,3D,5.3863,na,-234.9800433,424.49112,1006.121498,185.0917415,13590.80327,1065.184123,0.47045672,0.110443068,10.3173699,10.3173699,-129.9754167,432.2003333
JVASP-25029,CaMgGeO4,62,Pnma,orthorhombic,3D,3.7513,5.8455,-108.3201773,404.35643,709.3156112,561.5434094,63009.44433,3447.8913,0.239949137,0.329320606,0.457960941,0.457960941,-118.7469533,417.9419067
JVASP-25034,Pd3S,63,Cmcm,orthorhombic,3D,0.0003,na,-9.8236685,-6.186960717,167.1427373,113.7327645,1450145.1,1445178.333,0.004321498,0.002929513,2.61E-06,2.61E-06,-10.7901358,-6.675673867
JVASP-25035,TeOF2,4,P2_1,monoclinic,2D,4.1643,6.0534,-252.35805,317.4824033,995.5221417,829.9517998,15676.22297,8712.725833,0.477157737,0.46544897,1.425174803,1.425174803,-324.6742067,352.6824633
JVASP-25037,Bi2Ir2O7,227,Fd-3m,cubic,3D,0.0074,na,-16.092015,-18.006548,332.7730517,412.9399877,1285071.5,1273579.367,0.012428388,0.015482971,2.04E-06,2.04E-06,na,na
JVASP-25569,K4Ba(GeO3)3,5,C2,monoclinic,3D,3.407,5.4576,-109.060419,416.0543333,719.5930181,61.37515213,62319.83067,358.4676267,0.24568763,0.036757248,0.490257031,0.490257031,-123.97167,424.9744433
JVASP-25573,K3Np(H3O4)2,14,P2_1/c,monoclinic,3D,1.4301,1.5993,-393.05899,322.9355333,0.442978803,339.5122187,2.861725533,3259.669833,0.000265785,0.200416283,7070.562709,7070.562709,-389.7564367,341.5101367
JVASP-25574,Rb4Si2CuO7,2,P-1,triclinic,3D,1.966,4.0818,32.17023267,24.11318633,17.63844632,7.629381393,49232.59867,49612.01633,0.009451094,0.004283885,0.000434261,0.000434261,-31.85395467,-34.94634467
JVASP-25577,K2LiBO3,5,C2,monoclinic,3D,4.1354,2.6727,-137.1366033,474.0661033,912.0898946,286.9420473,49215.01967,1600.02907,0.342416563,0.171053058,0.637744871,0.637744871,-130.9269333,461.2853767
JVASP-25578,Hg2SeO3,72,Ibam,orthorhombic,3D,2.2911,2.8618,-302.5339167,219.3649567,1021.726214,1178.504777,11323.57467,24385.94367,0.557167051,0.541661187,4.312593791,4.312593791,-270.42748,197.01193
JVASP-25579,Nb3SnS6,182,P6_322,hexagonal,3D,0.004,na,41.620267,39.04192733,905.1527073,830.4805034,889958.8947,915179.884,0.058343952,0.051954636,1.33E-05,1.33E-05,41.75338167,39.418419
JVASP-25580,K2Ce(Si2O5)3,15,C2/c,monoclinic,3D,2.4888,2.1125,-576.4588567,433.42069,0.098979182,146.1607491,0.30714537,785.0358167,5.94E-05,0.087314779,168670.2667,168670.2667,na,na
JVASP-25581,Sr3P6(N4O3)2,147,P-3,trigonal,3D,4.7238,6.5904,-250.5002233,258.0265467,1190.628244,1388.342664,18960.633,17085.21216,0.584817583,0.688002461,0.963430994,0.963430994,-157.7384667,252.7216
JVASP-25583,RbNaSi2O5,14,P2_1/c,monoclinic,3D,4.7965,6.9519,-92.984771,441.10463,565.7552197,261.7453753,67677.53567,1502.387013,0.182270092,0.155989096,0.377232659,0.377232659,-116.71471,451.6937867
JVASP-25585,Ca2Mg5Si8(O11F)2,12,C2/m,monoclinic,3D,5.3486,7.507,-126.9397233,369.3851933,902.7182685,409.9265897,56219.84733,3652.543673,0.325580234,0.236359564,0.581766382,0.581766382,-119.5118967,386.9937267
JVASP-25587,K3Sn5Cl3F10,63,Cmcm,orthorhombic,3D,3.2699,na,-182.8013633,271.9135333,474.8506384,126.1409979,8194.773092,1846.658559,0.249375817,0.074487384,567.9500805,567.9500805,na,na
JVASP-25588,MnPtF6,148,R-3,trigonal,3D,0.3246,0.2247,164.5349967,162.9781333,7887.999714,7889.858748,288509.7567,294128.0533,1.264347329,1.247380341,1.07E-05,1.07E-05,na,na
JVASP-25590,RbBe2P3O10,15,C2/c,monoclinic,3D,5.8337,8.5117,-148.6078667,394.06022,1078.758309,144.0670609,49196.943,885.5885267,0.417220073,0.086256485,0.756632689,0.756632689,na,na
JVASP-25591,NbIO2,62,Pnma,orthorhombic,2D,0.799,1.3021,-162.1811013,288.64072,1518.108539,1502.520009,28592.20372,19209.17924,0.505837289,0.601194315,47.84456693,47.84456693,-285.18522,285.8366733
JVASP-25592,ZrVF6,225,Fm-3m,cubic,3D,0.845,0.3221,50.218396,49.205386,2335.09013,2258.555461,925929.6133,932836.3767,0.149568917,0.143496169,2.96E-06,2.96E-06,na,na
JVASP-25593,CaAl2B2O7,167,R-3c,trigonal,3D,4.9008,na,-135.6249467,460.1451233,816.7522105,166.9939856,43550.80467,785.0009667,0.327620278,0.099919746,0.663643967,0.663643967,-125.2807333,460.9551233
JVASP-25595,Hg2Sb2O7,227,Fd-3m,cubic,3D,0.114,na,-43.26529167,-22.257927,254.3461686,37.54178811,135876.9933,75778.41667,0.050879031,0.007723399,5.82E-05,5.82E-05,-36.114796,-14.293651
JVASP-25596,K4Na2TeO6,14,P2_1/c,monoclinic,3D,2.4697,4.0643,-115.1212767,443.36417,753.3829837,134.9743029,58436.35433,697.1577133,0.260215167,0.080787894,0.49033117,0.49033117,-124.12505,445.0709367
JVASP-25599,Cd(AuF6)2,15,C2/c,monoclinic,3D,1.6381,1.8389,-360.7234533,387.0648067,205.2337849,120.8889825,1630.641867,805.13466,0.122461596,0.072276231,16.13685117,16.13685117,-402.55663,447.7979033
JVASP-25601,KCu4AsS4,4,P2_1,monoclinic,3D,1.3356,1.5634,-302.28152,337.4125133,1201.381411,890.485997,13297.40167,7350.173733,0.636066713,0.499587032,1.980275586,1.980275586,-326.77259,341.47111
JVASP-25603,BaCuTe2O7,40,Ama2,orthorhombic,3D,0.0006,na,42.51059377,40.08125353,1019.37859,1033.684581,449168.634,452780.5793,0.205174102,0.200981219,0.000933324,0.000933324,43.91337303,41.2942536
JVASP-25605,KCaAl2F9,20,C222_1,orthorhombic,3D,7.6367,na,-83.78943833,527.81255,623.047258,11.46222945,30302.17526,43.4359586,0.254168769,0.006871563,54.29601934,54.29601934,-137.1824367,446.31106
JVASP-25606,NaUBO5,57,Pbcm,orthorhombic,3D,2.1252,2.0368,-493.9218633,372.34278,236.1066561,1513.413946,987.417431,18453.03227,0.139989762,0.692115682,3669.117338,3669.117338,-457.8789567,327.8311333
JVASP-25609,K3PO4,62,Pnma,orthorhombic,3D,4.324,7.5169,-114.2937367,463.95509,693.5293073,172.6621908,54615.75967,839.8890433,0.249623775,0.1033221,0.468959982,0.468959982,-135.43352,476.9931
JVASP-25611,KBa4Sb3O,140,I4/mcm,tetragonal,3D,1.0698,1.5338,-324.16912,319.9469533,3568.086567,711.2121503,31348.25667,6837.288033,1.686624855,0.413589394,1.903493881,1.903493881,-329.11007,330.91117
JVASP-25612,Nd3NbO7,62,Pnma,orthorhombic,3D,2.7928,na,-355.0536033,333.2416867,1319.59973,789.0926192,9414.677537,6853.982233,0.65947696,0.442510505,18.40842378,18.40842378,-341.3708167,349.1494367
JVASP-25614,CsNiF3,194,P6_3/mmc,hexagonal,3D,3.3507,5.1479,-25.324901,-26.613327,19.20528766,21.64286904,50256.00833,50162.02767,0.01036736,0.011640311,7.94E-05,7.94E-05,-460.3484333,459.5644233
JVASP-25615,Sc2TeO6,150,P321,trigonal,3D,2.9033,3.8019,-203.7259733,442.4188967,1028.434773,162.6933295,24804.818,831.5971,0.480813139,0.097195929,1.162298213,1.162298213,-205.6112667,443.5878767
JVASP-25616,K2ScSi4O10F,87,I4/m,tetragonal,3D,4.8648,5.9804,-128.2885067,325.56384,641.4390155,440.972227,33325.614,4375.435933,0.249769671,0.259573358,0.478174348,0.478174348,-134.66273,347.0109267
JVASP-25619,KSnSO4F,2,P-1,triclinic,3D,3.897,5.4254,-326.7166667,248.1915533,1665.863247,1108.190768,16993.569,17924.98233,0.773881923,0.539599048,3.682719443,3.682719443,-330.3519167,254.79463