JID,Composition,Spg.numb.,Spg.symb.,Cryst.,Dimensionality,OPT SCF gap, MBJ gap,n-Seebeck,p-Seebeck,n-powerfact,p-powerfact,n-cond,p-cond,n-ZT,p-ZT,Avg.elec.mass,Avg.hole mass,n-mp-Seeb,p-mp-Seeb
JVASP-5179,BiPt,194,P6_3/mmc,hexagonal,3D,0.0056,0.0024,7.782499903,7.849918987,1211.948886,1200.500508,6901181.3,6941892.767,0.006964683,0.006856498,4.08E-07,4.08E-07,9.25843788,9.7286695
JVASP-5185,C(ClF)2,43,Fdd2,orthorhombic,0D,5.7321,6.88,-369.6989433,474.2598433,909.7399779,499.332784,6125.927467,2140.81961,0.513156741,0.295592254,3.972994506,3.972994506,-392.8778767,470.9989167
JVASP-5188,PbIF,129,P4/nmm,tetragonal,2D,2.0126,3.0163,-112.696085,234.86681,872.1767174,897.1543325,61499.03833,15687.21833,0.271624497,0.430750268,0.460655651,0.460655651,-113.3863823,347.11663
JVASP-5191,SbSBr,62,Pnma,orthorhombic,1D,1.7096,2.4137,-178.0450933,317.83503,1716.58454,1304.999032,50860.972,13038.05433,0.56882707,0.686476205,0.629527208,0.629527208,-215.9032967,380.6008533
JVASP-5194,SbSeI,62,Pnma,orthorhombic,1D,1.3626,1.9804,-180.5038933,352.79479,2084.399898,1900.295046,66255.88933,15106.23633,0.69505683,1.006520212,0.603865917,0.603865917,-185.39805,357.30963
JVASP-5197,SbSI,19,P2_12_12_1,orthorhombic,1D,1.1604,1.2201,-302.8471,319.71277,3863.715575,1641.043344,39229.61107,20690.43993,1.597726861,0.648731674,0.842790907,0.842790907,-251.32378,325.6146433
JVASP-5200,BiSeI,62,Pnma,orthorhombic,1D,1.529,2.2243,-196.1191267,327.88875,2334.426088,1719.119436,62338.925,15941.52167,0.815014903,0.896515486,0.518577155,0.518577155,-190.92108,342.4664933
JVASP-5203,SbSI,62,Pnma,orthorhombic,3D,1.6066,2.1257,-199.8386467,359.1876167,2193.711935,2225.5838,56753.99567,17165.28433,0.754403191,1.160683315,1.033786421,1.033786421,-200.83951,343.9324
JVASP-5212,CS2NClO2,29,Pca2_1,orthorhombic,0D,2.5798,3.1031,-353.5557233,413.1303133,187.1198541,266.1840615,1344.276117,1369.77648,0.111440426,0.158072542,395.4615706,395.4615706,-394.0970333,412.37957
JVASP-5215,Bi2Se3,62,Pnma,orthorhombic,2D,0.9855,1.3894,-218.8518633,330.24813,2907.772252,1593.427016,59062.74333,14806.10967,1.040912933,0.845880556,0.320861241,0.320861241,-201.39279,296.64733
JVASP-5218,SbCl5,194,P6_3/mmc,hexagonal,3D,1.2611,2.6759,-155.0956333,432.4572033,1295.453968,576.2384773,53608.77033,3004.2588,0.458894683,0.337336729,0.425784324,0.425784324,-217.8232267,430.0622333
JVASP-164,BCl3,176,P6_3/m,hexagonal,0D,4.5313,6.1165,-300.6823867,428.7580233,735.0287043,1304.403519,7401.350467,6410.849203,0.412045603,0.743566217,3.78201723,3.78201723,-364.8032467,448.4207867
JVASP-5224,HgI2,137,P4_2/nmc,tetragonal,2D,0.9695,2.045,-65.69001133,292.6985533,389.8911345,1484.515121,81531.009,17178.268,0.102304574,0.752041012,0.195157815,0.195157815,-78.11289033,350.9160267
JVASP-5227,FeCl3,148,R-3,trigonal,2D,0.4491,0.0166,-26.36076733,-27.82064267,53.84245541,58.77227521,74035.37233,73376.799,0.018207636,0.019855211,3.32E-05,3.32E-05,32.32256873,30.70616207
JVASP-167,MgI2,164,P-3m1,trigonal,2D,3.6246,4.821,-271.8541967,339.68451,3582.41075,1533.530826,45994.761,13877.037,1.357097166,0.780243847,0.874737313,0.874737313,-279.8499867,403.02033
JVASP-170,MgCl2,166,R-3m,trigonal,2D,5.6411,7.7203,-105.9734833,341.1705067,728.7446398,1636.006562,64703.503,16338.7341,0.238716911,0.776962789,0.41933925,0.41933925,-110.24171,463.9993433
JVASP-5230,SnBr4,14,P2_1/c,monoclinic,0D,2.2176,3.5328,-173.7373967,402.64007,387.6247163,261.2218584,12789.41607,1612.187033,0.214260805,0.155621099,0.783052841,0.783052841,-221.91772,461.33399
JVASP-173,BBr3,176,P6_3/m,hexagonal,0D,3.6885,4.872,-384.3386467,392.9048933,723.3733631,1461.052709,6702.03774,8226.033847,0.408667166,0.823997573,55.57075033,55.57075033,-355.3556933,429.6932667
JVASP-4189,FeCl2,166,R-3m,trigonal,2D,0.0217,0.0108,27.042692,26.83161167,240.4114013,243.1364861,465451.601,469035.5883,0.017163261,0.017154948,4.48E-05,4.48E-05,-53.89394567,-52.622733
JVASP-5236,PCl3,62,Pnma,orthorhombic,0D,3.7712,3.4784,-397.24907,309.8656233,797.5890562,1014.288232,5226.064033,10979.19893,0.465027103,0.557140914,5.63928425,5.63928425,-340.2824567,330.25015
JVASP-5239,UCl6,164,P-3m1,trigonal,0D,1.4473,1.5508,-497.80765,376.4229667,2.759400069,403.5425425,12.2403814,2854.585333,0.001654451,0.238331564,5459.966038,5459.966038,-627.19004,426.43693
JVASP-4243,TiI3,59,Pmmn,orthorhombic,3D,0.0023,0.0003,-80.06121,-87.8909,2799.020253,2902.076002,78440.959,86171.7,0.713946211,0.692050265,0.000185828,0.000185828,-83.39921333,-51.35330333
JVASP-4183,BeCl2,72,Ibam,orthorhombic,3D,6.4796,8.395,-157.7973867,390.0634667,1161.485473,1047.859657,46647.94633,7358.697767,0.406641772,0.588460861,0.421530371,0.421530371,-122.7957033,403.4677867
JVASP-4246,WCl3,148,R-3,trigonal,0D,0.0035,0.0017,-29.1071486,-33.34182987,23.75730944,24.21438402,36959.04933,37228.26967,0.010931917,0.011851848,0.000167994,0.000167994,-77.60996747,-77.48019567
JVASP-4273,AsCl3,19,P2_12_12_1,orthorhombic,0D,3.6916,5.3869,-294.1346633,385.1044067,1053.031856,947.7303186,11688.2668,6261.4702,0.55552813,0.533488553,4.649740442,4.649740442,-355.63208,405.1317033
JVASP-176,SbI3,148,R-3,trigonal,2D,2.0615,2.393,-341.4940733,390.1710433,1181.22669,784.5849225,10723.3894,5142.5363,0.640195905,0.452081584,2.490915576,2.490915576,-328.7807033,370.4144433
JVASP-4264,AlBr3,14,P2_1/c,monoclinic,0D,3.9745,5.2853,-99.76634767,370.2549767,546.0398984,486.1777116,53542.089,3538.371033,0.195068067,0.286418886,0.38119841,0.38119841,-137.9873467,394.0648333
JVASP-5245,PtCl2,166,R-3m,trigonal,3D,1.5356,1.3799,-414.4209167,462.2356633,543.7814103,129.7949855,3309.4893,609.07896,0.317085597,0.077511104,7.237556775,7.237556775,-430.5600933,459.74851
JVASP-4234,RuBr3,193,P6_3/mcm,hexagonal,1D,0.0194,0.0204,71.49070667,68.641523,963.8133336,929.3245905,708798.5633,716133.2767,0.237205292,0.222421654,1.35E-05,1.35E-05,81.57149567,77.99914967
JVASP-4258,MoBr3,59,Pmmn,orthorhombic,1D,0.0627,0.0018,-312.9601767,359.5498667,1204.610735,436.8817413,18353.6196,3371.401633,0.535789331,0.255288426,12.4081366,12.4081366,-201.9539833,368.1916933
JVASP-4255,AsBr3,19,P2_12_12_1,orthorhombic,0D,2.8535,4.0247,-305.0742,382.3919767,1036.308129,740.7266943,10444.94027,5220.805,0.567184081,0.431134391,2.102175246,2.102175246,-328.6439467,407.3188567
JVASP-5254,BiSBr,62,Pnma,orthorhombic,2D,1.9451,2.6672,-188.8354533,364.5647533,1735.896147,1512.223707,48349.87733,11518.4867,0.580360809,0.823333133,0.695607139,0.695607139,-208.9590933,370.5981133
JVASP-4394,PrAl4,139,I4/mmm,tetragonal,2D,0.0016,0.0047,-10.22404693,-11.16059407,521.4467601,616.6845638,5123335.167,5093103.967,0.004828033,0.005738478,5.55E-07,5.55E-07,-10.80696133,-11.67139007
JVASP-5257,GaSeBr7,7,Pc,monoclinic,0D,1.9928,2.9742,-333.6093167,340.68278,590.8492921,287.8573583,5814.504147,2502.286567,0.342981353,0.170186102,17.58204885,17.58204885,-348.0262633,388.8882267
JVASP-5266,Sr2InI5,140,I4/mcm,tetragonal,3D,2.8274,3.457,-114.6774933,323.0343333,843.1923489,636.3512105,60259.92567,6329.730733,0.248320597,0.368368793,0.506635161,0.506635161,-118.9066067,345.7674733
JVASP-5269,BiSI,62,Pnma,orthorhombic,2D,1.7666,2.4072,-222.1555633,359.1832167,2517.335324,1885.974397,52662.67943,14591.87207,0.912267813,0.983925081,0.980923025,0.980923025,-212.1267,361.89439
JVASP-4295,SN,14,P2_1/c,monoclinic,3D,0.0282,na,4.754297,18.60205667,303.2149858,607.2974388,557673.7467,576591.73,0.04476356,0.052799036,2.23E-05,2.23E-05,-19.75300833,9.1481111
JVASP-5275,K3AlH6,139,I4/mmm,tetragonal,3D,2.1119,4.5125,-218.1468367,279.9789333,2535.20245,1993.645234,48295.25933,29877.49333,0.916776073,0.852812501,0.427910315,0.427910315,-135.4879367,285.9099767
JVASP-4298,SN,14,P2_1/c,monoclinic,3D,2.7213,0.0046,-382.0897767,419.8627733,1115.405024,1221.882748,7694.325867,8615.073557,0.596856215,0.661885448,5.61364178,5.61364178,-330.0859833,319.4023567
JVASP-5278,KHCO3,2,P-1,triclinic,3D,5.394,7.4466,-317.4710133,376.44897,747.7248527,486.1493116,7056.890233,3321.0412,0.412658481,0.286274039,3.286227873,3.286227873,-163.6421767,403.89928
JVASP-5281,SiH4,14,P2_1/c,monoclinic,0D,6.1443,7.7896,-206.8962833,375.5588433,1296.213846,890.5433663,30967.43367,6311.9583,0.522844408,0.509007904,1.210349402,1.210349402,-326.51765,429.4820267
JVASP-5284,SrH2,194,P6_3/mmc,hexagonal,2D,1.6785,2.9741,-219.0271167,129.4257,2679.10285,1148.787326,55712.448,73907.80767,0.971750782,0.34669567,0.484115153,0.484115153,-209.4835067,133.38117
JVASP-140,PdSe2,61,Pbca,orthorhombic,2D,0.023,na,-37.113984,-27.032448,998.5529825,758.8098582,350148.9567,340713.2367,0.08496037,0.061446552,9.76E-06,9.76E-06,-223.4887133,273.2464533
JVASP-5290,HS7N,62,Pnma,orthorhombic,3D,2.5187,na,-266.8361,321.6946767,1149.690149,598.8076462,16350.86643,5748.393933,0.58529524,0.346242059,2.159371903,2.159371903,na,na
JVASP-5293,MnH,194,P6_3/mmc,hexagonal,3D,0.002,0.0014,4.3459846,4.249144117,301.0807213,291.4546811,8311664.4,8316646.2,0.001740969,0.001681864,3.40E-07,3.40E-07,na,na
JVASP-4397,P4Se5,33,Pna2_1,orthorhombic,0D,1.5869,na,-319.8614267,303.9144333,656.6659651,1126.069638,6517.1522,12091.46757,0.379910387,0.611970329,2.371123257,2.371123257,-350.1280133,313.6007633
JVASP-4213,CaSn,63,Cmcm,orthorhombic,3D,0.002,0.0003,-20.16203333,-20.57470233,1926.748564,1843.750145,1686366.867,1659310.7,0.044683067,0.043911677,1.82E-06,1.82E-06,-19.10551733,-19.652109
JVASP-5296,CaH2,194,P6_3/mmc,hexagonal,3D,1.0549,2.4801,-234.3258633,103.6228257,2555.730655,920.344369,46509.98533,95422.28533,0.984250476,0.233088869,0.575655055,0.575655055,-230.82131,110.5031033
JVASP-5299,KBH4,62,Pnma,orthorhombic,3D,1.3002,2.5009,-267.0501667,255.4020267,2259.523049,3400.158514,32242.63567,34576.85394,0.911143803,1.158046097,1.208570175,1.208570175,-377.3397467,245.8330033
JVASP-5302,SmFeAsO,129,P4/nmm,tetragonal,2D,0.0968,na,-2.2634405,-1.6834814,30.6538597,23.49730124,717565.6413,714992.7983,0.001139616,0.000911385,3.42E-05,3.42E-05,5.059003467,4.796809333
JVASP-101,Fe2O3,167,R-3c,trigonal,3D,0.05,0.008,15.17691033,14.982504,199.8370808,194.9128786,871212.74,872062.3067,0.010178293,0.009910569,3.10E-06,3.10E-06,17.415528,17.30084667
JVASP-143,GaS,194,P6_3/mmc,hexagonal,2D,1.4998,2.45,-223.1973933,180.4552667,3615.331793,1923.880916,71823.90033,75411.457,1.068419157,0.501322123,0.187117987,0.187117987,-217.8542,282.7433567
JVASP-308,TiO2,166,R-3m,trigonal,2D,2.3537,2.6662,-461.66955,410.3304033,2434.941974,2170.345882,13939.84033,13007.41633,1.229590409,1.159277793,27.10072773,27.10072773,-469.47616,424.2617367
JVASP-5308,MnO2,164,P-3m1,trigonal,2D,0.0027,0.027,-313.0119167,368.2566433,1502.109503,1020.328101,15831.06425,7515.887333,0.740646855,0.570304194,50.58772847,50.58772847,na,na
JVASP-4400,TlSn,123,P4/mmm,tetragonal,3D,0.005,0.0008,6.3465339,5.818440967,546.7481033,451.8261175,13209628.67,13263823.67,0.001802839,0.001463058,2.06E-07,2.06E-07,na,na
JVASP-350,ZrO2,137,P4_2/nmc,tetragonal,3D,4.0296,4.6002,-201.25768,480.76565,1134.342182,2761.285967,27917.06967,12485.4362,0.486357086,1.450991938,1.229067162,1.229067162,-201.26548,472.4735067
JVASP-542,NiTe2,164,P-3m1,trigonal,2D,0.0123,0.0087,-12.19985493,-11.87221437,1358.659453,1320.947943,5104766.233,5073089.7,0.011767212,0.01158239,5.67E-07,5.67E-07,-14.35979993,-13.98003793
JVASP-4403,AlNi3,221,Pm-3m,cubic,3D,0.0227,0.0117,17.078802,17.227338,972.4748034,991.5397609,3333984.3,3340979.3,0.010973226,0.011178781,8.63E-07,8.63E-07,na,na
JVASP-5,TiO2,136,P4_2/mnm,tetragonal,3D,1.7688,2.0697,-386.26642,300.12629,3027.295906,1172.517946,20229.09033,12993.98967,1.408311887,0.617821111,1.166827568,1.166827568,-419.23923,303.6709567
JVASP-302,SnSe,225,Fm-3m,cubic,3D,0.0168,0.1636,-162.55998,157.73309,3946.413056,3525.207786,149339.6967,141689.9667,0.770441724,0.630873146,0.000791798,0.000791798,-136.01964,142.90514
JVASP-5311,HgPS3,2,P-1,triclinic,2D,1.6787,2.5866,-193.99405,346.5076533,1307.219341,1266.951238,35924.067,10933.71373,0.484133775,0.700033053,0.686337078,0.686337078,-164.4239067,355.6570133
JVASP-4201,CrI2,12,C2/m,monoclinic,3D,0.0042,0.0787,25.39009833,27.126294,135.4622194,148.8134105,161741.8333,163522.12,0.022438849,0.024689252,2.51E-05,2.51E-05,na,na
JVASP-5314,UCl5,2,P-1,triclinic,0D,0.1982,0.0023,-197.2270533,-10.21615667,11.03642928,5.065357398,191.6720033,99.92479733,0.006595995,0.003025987,1.467513175,1.467513175,na,na
JVASP-5317,CuCO3,8,Cm,monoclinic,3D,0.04,0.0786,8.971459367,9.795538533,125.9529701,112.3189321,427875.9667,424847.51,0.007567556,0.007614733,8.15E-05,8.15E-05,na,na
JVASP-4279,PBr3,62,Pnma,orthorhombic,0D,2.9922,4.1101,-360.66409,327.5880067,826.4278732,719.074072,6666.572933,6614.878733,0.47589364,0.411720048,4.321326714,4.321326714,-363.44757,364.1996967
JVASP-5323,TmCl2,61,Pbca,orthorhombic,3D,0.0041,0.0348,-31.94688033,-29.47463333,599.0857734,474.5572826,148059.5233,142279.56,0.095511466,0.075052904,2.30E-05,2.30E-05,-31.80095867,-26.93008867
JVASP-5326,Sc2Co3Si,194,P6_3/mmc,hexagonal,2D,0.0015,na,3.533006067,3.5649448,90.75259237,90.01371341,1055856.073,1060000.843,0.002220432,0.00223796,2.80E-06,2.80E-06,4.436059933,4.5033331
JVASP-5329,Xe(OF)2,63,Cmcm,orthorhombic,2D,1.7591,2.7741,-200.82998,229.76107,1645.703954,1036.792336,35706.11967,18715.43173,0.591468089,0.479304427,1.414923192,1.414923192,-266.78863,452.7284933
JVASP-5332,ReCl4,13,P2/c,monoclinic,1D,0.0268,0.0018,-172.9653333,9.488643233,207.097115,25.74124036,8144.884667,5974.340433,0.099309589,0.010098398,0.007169188,0.007169188,0.515579,-2.415792333
JVASP-5335,Nb(SeCl)2,2,P-1,triclinic,2D,0.9671,na,-317.37188,332.9957733,1516.673393,765.4409062,14551.6756,6565.866933,0.764370824,0.434138256,4.220132034,4.220132034,-311.04074,347.22251
JVASP-5338,Nb(SCl)2,12,C2/m,monoclinic,2D,1.4572,0.5604,-297.34219,326.88958,1133.366535,996.1840303,11885.651,8503.485567,0.601718528,0.542539495,1.999706563,1.999706563,-286.10536,355.7327433
JVASP-5344,SbBr3,19,P2_12_12_1,orthorhombic,3D,2.8508,3.716,-277.03615,388.7362933,1192.08456,1058.019944,16251.2451,6997.0219,0.616013909,0.609483626,1.857755063,1.857755063,-330.8331133,414.4393833
JVASP-5353,AlPS4,16,P222,orthorhombic,2D,2.48,3.395,-352.6635433,244.7842533,1188.767205,805.2821756,9704.7241,11321.01833,0.654368788,0.426276488,3.5480621,3.5480621,-306.71208,294.24245
JVASP-5356,S8O,29,Pca2_1,orthorhombic,0D,2.0873,na,-247.3838967,341.6769133,661.4409209,274.859595,11509.79167,2380.747367,0.365379458,0.162441963,2.084860038,2.084860038,-275.1016667,367.7300633
JVASP-5359,ScCl,166,R-3m,trigonal,2D,0.0017,0.023,-17.8071364,-18.88859987,49.29811618,55.04756012,316136.03,315158.8893,0.017145812,0.019599447,1.52E-05,1.52E-05,-44.773916,-45.080706
JVASP-5362,As4S3,62,Pnma,orthorhombic,0D,1.8078,2.4232,-248.0619367,257.62513,555.7704065,709.9550183,9221.121133,12287.15707,0.311742188,0.384147908,1.421573408,1.421573408,-273.8134933,339.7398233
JVASP-603,SiTe2,164,P-3m1,trigonal,2D,0.0016,0.0141,2.259816873,1.984434043,23.12061146,18.78393847,2556124.84,2560877.86,0.000275254,0.00022221,1.71E-06,1.71E-06,7.783519367,7.674186233
JVASP-5365,CrCl3,12,C2/m,monoclinic,2D,1.4934,0.7986,-388.0490933,356.2736233,432.8212285,426.9424735,2885.464967,3436.052267,0.254396678,0.251182683,5.989779358,5.989779358,-391.50403,351.91987
JVASP-5368,TiBr4,14,P2_1/c,monoclinic,0D,2.5201,2.7835,-416.7547033,380.38188,123.2704443,248.1389932,746.6072467,1724.260933,0.073792714,0.147603644,31.32492112,31.32492112,-428.61368,453.3379033
JVASP-4252,AuCl3,14,P2_1/c,monoclinic,0D,1.1177,1.9008,-348.9574533,391.1618667,1012.695081,701.3286018,7416.6221,4680.216433,0.555207507,0.407381001,7.064957234,7.064957234,-358.74405,439.5416567
JVASP-4186,Te2Br,62,Pnma,orthorhombic,1D,0.0236,0.6354,-184.1557403,-33.01786333,1853.057582,1374.412625,41832.324,73617.9192,0.502363712,0.35229454,0.001117137,0.001117137,-286.74839,277.69079
JVASP-4210,Te2I,62,Pnma,orthorhombic,2D,0.0251,0.6368,-173.9162267,178.6229967,1351.321522,1279.12242,52591.677,48241.10483,0.3870004,0.463334386,0.004369393,0.004369393,-171.8527933,256.5445833
JVASP-5371,S3(NCl)2,4,P2_1,monoclinic,2D,1.4122,1.7669,-303.26513,332.54473,1286.689393,924.4502847,13272.29348,7938.399467,0.608494612,0.5132515,8.769358393,8.769358393,-364.2888533,375.36532
JVASP-5374,BiI,12,C2/m,monoclinic,3D,0.1152,0.9824,-91.913012,213.78635,655.0015241,837.1515298,83488.63863,27472.42857,0.149365568,0.337310494,1.039967209,1.039967209,-99.075672,260.0015867
JVASP-4282,CrBr3,148,R-3,trigonal,2D,1.2993,0.0041,-397.7382067,312.4387267,120.3832614,306.9929037,757.6206717,2900.032206,0.071690671,0.180886424,796.6621298,796.6621298,-399.7083233,341.5261267
JVASP-5386,TiBr2,164,P-3m1,trigonal,2D,0.0243,0.0133,34.324873,33.05957767,777.5142533,735.3766446,650691.41,659984.9327,0.042978101,0.040100078,1.72E-05,1.72E-05,-15.31179967,-14.70328457
JVASP-5389,CS14,166,R-3m,trigonal,0D,2.2812,3.227,-248.45335,367.0319033,1005.602289,740.703301,16694.607,5525.521933,0.501556445,0.429698645,0.620405964,0.620405964,-242.9507933,389.8948133
JVASP-5392,NbCl3O,136,P4_2/mnm,tetragonal,1D,2.3077,2.6943,-320.24163,398.3617533,817.3831137,699.1950385,9459.93718,4605.833867,0.425185151,0.403849814,15.94838908,15.94838908,-353.28547,436.6170967
JVASP-5395,TiIN,59,Pmmn,orthorhombic,2D,0.1362,0.013,-39.79375633,131.54494,549.3071805,2126.901842,73520.09293,65410.26513,0.113428511,0.271994795,0.000505597,0.000505597,-51.46607033,156.182627
JVASP-5404,VNCl4,2,P-1,triclinic,1D,1.1532,0.6236,-376.2148367,313.5194867,281.0675048,835.0031889,1975.352933,7759.9493,0.167042243,0.454090527,60.49130901,60.49130901,-377.6611267,338.9395667
JVASP-5410,BiSe,164,P-3m1,trigonal,2D,0.036,0.0435,-127.7817933,-92.994788,1293.272918,270.0442313,121736.433,82012.30733,0.304835061,0.097090233,8.33E-05,8.33E-05,-144.6750827,-96.47620033
JVASP-179,GeI2,164,P-3m1,trigonal,2D,2.062,2.5332,-142.0025567,387.5490533,930.6752661,2300.743024,39263.48613,14752.52607,0.333108732,1.189870191,0.721414309,0.721414309,-117.3931103,384.57675
JVASP-5413,TbBr,166,R-3m,trigonal,2D,0.004,na,7.3509767,5.8255907,93.40992716,71.55956257,280082.2133,279724.8633,0.02546266,0.018862307,1.20E-05,1.20E-05,87.31618373,87.70574064
JVASP-5416,Ge2S3I2,147,P-3,trigonal,0D,2.0235,3.2203,-266.27054,378.71432,365.0923276,201.2964192,5482.909167,1462.130707,0.214061576,0.119901904,3.114881184,3.114881184,-212.1655333,423.8504233
JVASP-5428,Ge(BiTe2)2,166,R-3m,trigonal,2D,0.0193,na,-250.0064233,249.52978,6072.447316,3981.135051,102631.646,69858.31467,1.490520751,1.165991745,0.283137504,0.283137504,-216.2302767,315.4576233
JVASP-5431,SNCl,11,P2_1/m,monoclinic,0D,2.0798,3.3946,-254.3667533,342.93459,1428.717614,836.8055706,17427.92829,7068.8936,0.640113253,0.476214134,9.743247251,9.743247251,-318.8103333,403.89415
JVASP-5437,CBrN,59,Pmmn,orthorhombic,0D,4.8958,6.1859,-215.7469333,420.91653,1469.207861,1519.810467,30113.795,8853.750533,0.560953051,0.831001641,1.019618681,1.019618681,-189.7302767,477.5776567
JVASP-5443,BaBrCl,62,Pnma,orthorhombic,3D,4.7614,6.044,-165.89405,386.24169,933.0319055,560.6310616,34706.135,3751.898467,0.380768875,0.328592265,0.829033403,0.829033403,-214.0916967,436.8315567
JVASP-5446,SbS8Cl3,2,P-1,triclinic,0D,2.5019,3.5526,-296.0336133,293.2736267,384.8844434,409.910274,4290.9841,5232.237633,0.223918308,0.240339217,3.368281909,3.368281909,-358.3455133,291.0204967
JVASP-5449,PbBr2,62,Pnma,orthorhombic,2D,3.1727,4.1705,-332.1810167,394.68335,2261.617003,1104.829808,20775.87067,7081.8498,1.13033338,0.62651584,1.381879593,1.381879593,na,na
JVASP-4285,Sb2S3,62,Pnma,orthorhombic,1D,1.318,1.8873,-222.5551067,301.53491,2300.784523,1332.791042,49291.55317,13928.96307,0.788556416,0.674368703,1.419379369,1.419379369,-169.1508767,326.0145233
JVASP-5458,TiCl2,164,P-3m1,trigonal,2D,0.0216,0.0088,-23.06435433,-21.96904133,1535.068947,1455.626553,2054076.1,2032962.73,0.019370916,0.017990483,8.75E-06,8.75E-06,-13.079196,-12.20494067
JVASP-4276,VCl3,148,R-3,trigonal,2D,1.065,0.0276,13.6227179,12.40999133,74.44285077,69.31435008,99810.52133,100473.625,0.019305263,0.018026707,3.69E-05,3.69E-05,-66.43248667,-67.77267933