JID,Composition,Spg.numb.,Spg.symb.,Cryst.,Dimensionality,OPT SCF gap, MBJ gap,n-Seebeck,p-Seebeck,n-powerfact,p-powerfact,n-cond,p-cond,n-ZT,p-ZT,Avg.elec.mass,Avg.hole mass,n-mp-Seeb,p-mp-Seeb
JVASP-20754,CaNi2,227,Fd-3m,cubic,3D,0.0017,na,-21.160393,-20.887729,811.1786415,786.324814,1811628.1,1802268.667,0.016376466,0.015894005,1.59E-06,1.59E-06,-18.180343,-18.209979
JVASP-20756,NiP3,204,Im3,cubic,3D,0.0331,na,14.95557767,14.537233,281.0282151,267.3235481,1256445.167,1264951.033,0.008980318,0.008549375,2.19E-06,2.19E-06,25.369033,24.507681
JVASP-20766,P2O5,43,Fdd2,orthorhombic,3D,5.6002,na,-143.53746,452.66372,926.2885622,324.5598025,44022.90233,1667.499567,0.353670555,0.192364233,0.64292209,0.64292209,-139.8246433,463.80224
JVASP-20767,TiFe2,194,P6_3/mmc,hexagonal,3D,0.0024,na,-2.272315667,-2.022537,264.5857886,268.2030481,755410.4033,755520.47,0.010317452,0.010360445,4.08E-06,4.08E-06,3.484113633,3.06011027
JVASP-20768,Re3As7,229,Im-3m,cubic,3D,0.013,na,-13.13880633,-14.49009667,96.72311783,117.2640103,560297.2167,558498.7133,0.007755015,0.009548794,4.71E-06,4.71E-06,-14.305628,-15.347584
JVASP-20769,OsSe2,205,Pa3,cubic,3D,0.1831,na,-36.543149,24.924462,153.8379999,61.86028843,115199.79,99577.302,0.027468478,0.009301629,3.95E-05,3.95E-05,-42.679177,33.693844
JVASP-20775,Mg3P2,206,Ia3,cubic,3D,1.6903,na,-148.80608,332.66504,1478.504669,1524.704163,66769.99567,13777.52667,0.460577469,0.824535576,0.32555288,0.32555288,-139.8759,337.67216
JVASP-20777,Y5Si3,193,P6_3/mcm,hexagonal,3D,0.0049,na,-47.95888233,-48.30123733,1322.923683,1293.356478,560663.27,543963.37,0.08439617,0.083243698,5.30E-06,5.30E-06,-51.52762933,-51.84581833
JVASP-20778,BeO,186,P6_3mc,hexagonal,3D,8.0396,na,-161.74583,381.7228433,957.6223133,1749.21484,36558.326,11999.37667,0.399485326,0.92692411,0.749520732,0.749520732,-140.6678,375.5886833
JVASP-20780,Rb2O3,220,I-43d,cubic,3D,3.4177,na,80.056126,78.32555667,249.0031505,241.6931723,38852.20767,39396.47833,0.11423613,0.11037879,6.46E-05,6.46E-05,72.56895,70.70795
JVASP-20782,Sr5Sb3,193,P6_3/mcm,hexagonal,3D,0.0101,na,10.38431493,13.70876653,18.38930299,23.71114668,102994.9107,105579.978,0.004800621,0.007101435,3.87E-05,3.87E-05,-16.011103,-17.955866
JVASP-20784,Ti3O,163,P-31c,trigonal,3D,0.0014,na,6.530238333,8.988258,436.5835649,436.5606526,499115.4833,497997.15,0.020657483,0.022266305,9.20E-06,9.20E-06,7.178824667,9.202765667
JVASP-20785,Tb5Ge3,193,P6_3/mcm,hexagonal,3D,0.0053,na,-44.189773,-45.03110033,1196.638877,1199.085784,606137.6967,587694.8467,0.074581229,0.07544219,4.77E-06,4.77E-06,na,na
JVASP-20786,Pa3As4,220,I-43d,cubic,3D,0.014,na,12.783689,12.21951933,123.2675719,112.9595967,754286.6967,756510.3733,0.007178424,0.006578434,3.58E-06,3.58E-06,8.7792576,8.1554184
JVASP-20787,U2C3,220,I-43d,cubic,3D,0.0084,na,6.974108733,6.1169288,10.05361088,7.744523374,206701.9833,206979.7433,0.001953738,0.001506303,1.21E-05,1.21E-05,11.270358,11.377753
JVASP-20792,PrF3,165,P-3c1,trigonal,3D,7.7789,na,-438.82234,415.2254233,301.4122872,498.7465541,1619.208967,2870.655463,0.179038959,0.290708211,13.83616745,13.83616745,-454.9289833,419.6767267
JVASP-20793,Y2O3,206,Ia3,cubic,3D,4.3066,na,-129.00309,407.21356,560.3918249,446.5278605,33673.75633,2692.8,0.242320162,0.263546128,0.471448124,0.471448124,-132.54669,407.49815
JVASP-20795,Ho5Sb3,193,P6_3/mcm,hexagonal,3D,0.0014,na,-7.122847733,-8.151620767,72.98086961,94.41031958,1266093.073,1262009.207,0.002165076,0.002836768,2.61E-06,2.61E-06,-6.681779433,-7.058435433
JVASP-20796,Pr2Au,62,Pnma,orthorhombic,3D,0.002,na,12.39363077,11.71775783,288.4302628,292.499423,1269561.437,1271234.32,0.017187866,0.017485322,3.33E-06,3.33E-06,14.471295,13.73056233
JVASP-20798,DyB4,127,P4/mbm,tetragonal,3D,0.0154,na,-10.1238302,-8.71773,309.0343609,311.024471,1867209.767,1851512.8,0.008031535,0.007707851,1.73E-06,1.73E-06,-9.644485133,-8.0754181
JVASP-20799,Al8Mo3,12,C2/m,monoclinic,3D,0.044,na,-63.62673,35.54838793,422.7153539,192.5903277,73054.077,59999.63067,0.07774047,0.037427301,9.72E-05,9.72E-05,-67.76077767,12.22473067
JVASP-20800,CaF2,225,Fm-3m,cubic,3D,7.5894,na,-116.74109,473.30978,718.3871739,2419.622671,52712.19267,10800.819,0.257405449,1.283461757,0.465463638,0.465463638,-134.05414,462.51126
JVASP-20801,Cr2Te3,163,P-31c,trigonal,3D,0.0155,na,-5.966725457,-9.466424693,28.05642707,57.44140361,285531.5133,283011.1167,0.004865071,0.010115127,9.31E-06,9.31E-06,-9.783369133,-9.1985203
JVASP-20803,Nb6C5,12,C2/m,monoclinic,3D,0.0076,na,-3.479847307,-3.736855893,370.9927343,385.3710317,2181938.6,2176568.833,0.006515149,0.006793012,1.34E-06,1.34E-06,-4.329391433,-4.5637805
JVASP-20804,ZrAl2,194,P6_3/mmc,hexagonal,3D,0.0031,na,-14.4243727,-8.833326,336.0896988,234.4298953,867321.5067,861303.8967,0.011029895,0.00750508,4.05E-06,4.05E-06,-11.471082,-5.6262642
JVASP-20807,MoN,186,P6_3mc,hexagonal,3D,0.005,na,5.895515533,6.728222867,174.434984,174.0737543,2457780.867,2463354.5,0.003044469,0.002975684,1.20E-06,1.20E-06,5.597002933,6.629940633
JVASP-20808,AlPd2,62,Pnma,orthorhombic,3D,0.0086,na,-5.660255667,-6.214691527,386.7127843,403.1607199,4430845.267,4416300.567,0.003511567,0.003723467,7.26E-07,7.26E-07,-7.179419727,-7.508538495
JVASP-20809,Cr2Se3,148,R-3,trigonal,3D,0.0126,na,7.578008667,30.45719133,416.9639642,628.6361614,164022.2733,166660.83,0.046105549,0.079618083,2.62E-05,2.62E-05,-2.7546122,-2.520235587
JVASP-20810,Dy5Si3,193,P6_3/mcm,hexagonal,3D,0.0026,na,-40.77070533,-40.72073933,1092.584843,1055.840786,648698.3333,631880.07,0.059837496,0.058351957,4.57E-06,4.57E-06,-44.501044,-44.71223267
JVASP-20811,ErB4,127,P4/mbm,tetragonal,3D,0.0092,na,-2.956796067,-2.360409667,206.8676282,257.4313446,2148256.067,2151621.5,0.003588293,0.004184138,1.46E-06,1.46E-06,-9.311301733,-8.029669
JVASP-20813,Mn4Al11,2,P-1,triclinic,3D,0.0138,na,17.44887413,32.90385293,80.81689207,138.9977323,71464.567,71571.34233,0.018698245,0.032547537,7.44E-05,7.44E-05,na,na
JVASP-20815,LaPd3S4,223,Pm-3n,cubic,3D,0.0312,na,-1.2378812,-1.3804083,1.597430143,1.988698949,1042470.9,1043647.7,5.92E-05,7.46E-05,2.70E-06,2.70E-06,5.2244876,4.9858611
JVASP-20818,Y2Si4Mo3,14,P2_1/c,monoclinic,3D,0.0063,na,-0.2441275,6.9036233,60.10883804,69.28138616,372943.0133,373045.03,0.003546848,0.004370357,1.05E-05,1.05E-05,-10.06115023,-4.2929558
JVASP-20820,LuPO4,141,I4_1/amd,tetragonal,3D,6.373,na,-182.3139067,411.51985,1071.396201,1423.41306,32511.38867,8727.985467,0.388100803,0.767042969,0.499718194,0.499718194,-128.2513933,403.5516467
JVASP-20821,KY3F10,225,Fm-3m,cubic,3D,6.9817,na,-207.63447,496.02939,667.4463719,185.729278,15481.658,754.8585033,0.358045302,0.111083005,1.206557269,1.206557269,-188.2506,481.46086
JVASP-20822,NaMgF3,62,Pnma,orthorhombic,3D,7.266,na,-145.29085,568.67104,1002.674234,252.1595619,48672.60467,849.7051767,0.384114984,0.150188615,0.692540625,0.692540625,-128.1136267,538.1279133
JVASP-20823,Co2(GeS)3,148,R-3,trigonal,3D,0.5356,na,-393.24588,80.297775,1159.417559,404.65517,7490.5406,62710.515,0.650603361,0.139369972,2.259901376,2.259901376,na,na
JVASP-20824,Dy(BC)2,127,P4/mbm,tetragonal,3D,0.0029,na,-10.45995967,-10.90082767,1034.862857,1104.783408,4968124.833,4922907.3,0.008233871,0.008924086,5.66E-07,5.66E-07,-10.69406087,-11.08111727
JVASP-20825,HfSnRh,190,P-62c,hexagonal,3D,0.0069,na,-20.5994883,-22.97709533,131.2783249,168.9630495,627385.61,620231.6633,0.01805734,0.020722197,8.88E-06,8.88E-06,-21.1256446,-23.67440333
JVASP-20827,Pr3Sb5O12,217,I-43m,cubic,3D,3.1863,na,-351.73463,368.80958,537.1349239,479.363228,4341.633233,3524.198233,0.316556185,0.283896662,4.413741006,4.413741006,-348.50601,367.84871
JVASP-20832,Rb2BeF4,62,Pnma,orthorhombic,3D,7.3097,na,-104.3627127,480.8293967,708.0130649,121.730008,67758.96333,539.3979033,0.229769339,0.072888009,0.476586938,0.476586938,-132.8608467,480.8999567
JVASP-20834,RbBF4,62,Pnma,orthorhombic,3D,8.3614,na,-91.97376067,536.29439,582.4140457,61.70134745,68888.844,211.2337633,0.18523619,0.036990077,0.382528406,0.382528406,-138.96194,545.2317233
JVASP-20835,K2SiF6,225,Fm-3m,cubic,3D,7.8869,na,-151.13432,493.66983,989.9352425,545.2174898,43339.17033,2237.157733,0.391873337,0.324357644,0.670439929,0.670439929,-138.71263,505.30266
JVASP-20836,ErFe4B,191,P6/mmm,hexagonal,3D,0.0091,na,-17.24987027,-17.12592053,1229.799054,1180.083847,914406.2833,911625.8733,0.045412528,0.043670124,3.30E-06,3.30E-06,-4.613611033,-4.8778959
JVASP-20839,Li2CO3,15,C2/c,monoclinic,3D,5.1165,2.1709,-285.58791,457.2272767,1333.645649,630.8124131,16485.973,3138.070583,0.67912308,0.368661263,2.038567311,2.038567311,-320.1515033,463.7056533
JVASP-20840,Sm2Te4O11,15,C2/c,monoclinic,3D,3.3088,na,-290.3434033,321.5678167,791.0279462,416.7274983,9219.760767,4376.498267,0.442549924,0.239791357,2.35130715,2.35130715,na,na
JVASP-20841,CaTa4O11,182,P6_322,hexagonal,3D,3.6179,na,-398.21561,423.8260267,327.8994673,718.2297214,2072.452633,4018.3281,0.194661657,0.418226596,6.760616975,6.760616975,-390.3188267,427.5250233
JVASP-20842,BeAl2O4,62,Pnma,orthorhombic,3D,6.6761,na,-109.4162307,329.08252,698.9150896,1087.592019,58535.361,11198.19857,0.242228221,0.589660961,0.427804749,0.427804749,-111.5091033,339.7514933
JVASP-20843,Sc2Ni12P7,174,P-6,hexagonal,3D,0.0299,na,-14.49988223,-13.9367767,199.078546,206.7437071,442145.8633,439551.87,0.009971908,0.010113337,1.18E-05,1.18E-05,na,na
JVASP-20844,ScSi3Ni,65,Cmmm,orthorhombic,3D,0.0039,na,6.028903167,5.510906267,315.6885424,316.293695,3054278.633,3076207.967,0.003286414,0.003358792,1.21E-06,1.21E-06,6.837140197,6.464123133
JVASP-20845,Ca(NO3)2,205,Pa3,cubic,3D,3.7291,na,-477.60897,408.8784,63.36076649,454.4471389,277.76369,2718.2853,0.037978841,0.270245263,58.59071911,58.59071911,-468.13223,421.71939
JVASP-20846,Li3TaO4,15,C2/c,monoclinic,3D,4.5514,na,-374.8548533,474.2042567,772.5643514,428.1812942,5538.154633,1856.804533,0.445924815,0.252661109,3.213867654,3.213867654,-384.9941667,467.1210733
JVASP-20848,Sm3Sb5O12,217,I-43m,cubic,3D,3.1707,na,-346.40584,373.41134,644.8256391,544.1511801,5373.681067,3902.5149,0.378320441,0.321201583,3.700404303,3.700404303,-344.94211,378.69925
JVASP-20849,BaSO4,62,Pnma,orthorhombic,3D,6.492,na,-170.3845867,453.7534633,855.2908516,237.4348516,23929.66533,1163.112647,0.354241394,0.140712801,0.717428693,0.717428693,-124.3243533,475.44873
JVASP-20852,YbSnPd,62,Pnma,orthorhombic,3D,0.0015,na,-4.0240447,-4.241048133,141.2834225,159.1454434,2586043.867,2577488.3,0.002413913,0.00270064,1.10E-06,1.10E-06,0.486082933,-0.1757829
JVASP-20859,AgTe4Au,13,P2/c,monoclinic,3D,0.0051,na,-27.9154098,19.270607,465.5767792,235.9492386,267424.3567,258472.66,0.026426437,0.019546868,1.83E-05,1.83E-05,-34.19199533,30.10854853
JVASP-20860,Li10Zn4O9,137,P4_2/nmc,tetragonal,3D,2.5906,na,-115.2895033,414.1367833,620.6713104,770.3587278,44931.843,4478.563767,0.238257527,0.446674799,0.442138565,0.442138565,-138.4140233,402.1707133
JVASP-20861,CaPd3O4,223,Pm-3n,cubic,3D,0.0677,na,9.6293553,23.7545,29.95324425,185.0854775,323034.9,328005.07,0.001961153,0.012032381,1.18E-05,1.18E-05,15.040045,30.152082
JVASP-20862,Na2BeF4,62,Pnma,orthorhombic,3D,7.0054,na,-140.14309,480.1803033,981.7291835,226.7139085,52939.66267,1081.15122,0.365864841,0.135167253,0.71286606,0.71286606,-153.5317867,490.4044133
JVASP-20868,ErSiPd2,62,Pnma,orthorhombic,3D,0.0017,na,-12.02803243,-10.34667527,710.7579478,669.2105391,1037684.09,1028148.893,0.025512162,0.024308849,3.05E-06,3.05E-06,-9.4576383,-8.263602867
JVASP-20871,Sc2Ni2Sn,127,P4/mbm,tetragonal,3D,0.0035,na,5.4836059,4.3995582,105.3435693,77.76370479,3149950.467,3153187.133,0.002746276,0.001954453,1.09E-06,1.09E-06,1.293030433,0.3873999
JVASP-20877,Lu(MnGe)6,191,P6/mmm,hexagonal,3D,0.0004,na,3.424186027,4.256057867,15.28001038,32.3368515,1425239.593,1424553.05,0.000670751,0.001299239,3.24E-06,3.24E-06,na,na
JVASP-20878,Tl(MoSe)3,176,P6_3/m,hexagonal,3D,0.0008,na,-164.0002133,39.1038081,1554.778892,2468.104564,106744.522,144546.9251,0.15729536,0.152937285,0.001165136,0.001165136,-167.4170233,58.73709433
JVASP-20879,AgSbF6,206,Ia3,cubic,3D,1.3371,na,-160.14206,467.10551,1219.543006,241.216076,47553.91733,1105.5446,0.482035245,0.144157616,0.837919867,0.837919867,-138.75395,466.23651
JVASP-20880,Na3AlF6,14,P2_1/c,monoclinic,3D,7.1989,na,-167.8723767,534.63354,1205.193938,68.84660121,44239.23533,267.23087,0.48370472,0.04124527,0.85796572,0.85796572,-133.3795867,546.2286933
JVASP-20882,KMgF3,221,Pm-3m,cubic,3D,7.682,10.6421,-146.31791,458.85898,968.4708779,1654.387287,45236.77,7857.3973,0.374969856,0.927591053,0.629636421,0.629636421,-127.27158,476.94368
JVASP-20889,Y2SiO5,15,C2/c,monoclinic,3D,5.0226,na,-180.7961267,384.28025,708.7580695,522.7769598,21455.122,4405.6355,0.342881261,0.302897564,0.835083602,0.835083602,-133.2710367,419.0609533
JVASP-20890,NaBF4,63,Cmcm,orthorhombic,3D,8.3499,na,-173.7531133,476.7982267,1143.513472,617.6747691,39125.45233,2576.72301,0.473491082,0.363067264,0.923671387,0.923671387,-146.6522767,501.41783
JVASP-20891,K3VS4,62,Pnma,orthorhombic,3D,1.5483,na,-291.4292267,305.0888567,298.1227961,426.3658553,3522.671367,4961.299767,0.175770037,0.249453426,3.370620937,3.370620937,-312.0097567,313.1006533
JVASP-20892,MgAl2O4,227,Fd-3m,cubic,3D,5.6345,na,-97.738603,480.77966,600.5488991,1234.759699,62866.04233,5341.8326,0.196963794,0.718762551,0.333900153,0.333900153,-99.318789,475.03286
JVASP-20894,CeMgSi2,141,I4_1/amd,tetragonal,3D,0.0003,na,20.18845133,20.06687367,150.3802696,150.7988629,309009.6533,310701.9667,0.015191731,0.015133823,9.76E-06,9.76E-06,23.112647,22.93821167
JVASP-20897,Nd(Sb3Os)4,204,Im3,cubic,3D,0.306,na,62.286818,58.711008,2134.766834,1971.259881,550247.6,571879.87,0.180923716,0.161410182,4.27E-06,4.27E-06,na,na
JVASP-20898,Ta4MnS8,194,P6_3/mmc,hexagonal,3D,0.028,na,-10.81902233,-12.3211521,52.75083835,76.14995445,453206.29,451227.18,0.005183243,0.007666659,6.06E-06,6.06E-06,-17.52277593,-19.361987
JVASP-20899,Mg(BC)2,64,Cmce,orthorhombic,3D,1.2182,na,-277.6252367,355.9379267,2845.701446,4434.59427,38538.39233,36353.2562,1.167775273,1.854805899,0.897995331,0.897995331,-297.8727333,335.7116667
JVASP-20901,BPO4,82,I-4,tetragonal,3D,7.6182,na,-125.66106,493.0279667,758.8896585,689.4298583,48045.26633,2835.813767,0.285283065,0.40766942,0.490427992,0.490427992,-139.9971567,522.6522067
JVASP-20907,RbCaF3,221,Pm-3m,cubic,3D,6.8437,na,-126.74053,496.34414,814.8724793,1217.408969,50729.27,4941.6354,0.299442481,0.706439666,0.511916261,0.511916261,-127.28208,497.87596
JVASP-20908,Mn(NbS2)4,194,P6_3/mmc,hexagonal,3D,0.0085,na,-12.37893383,-14.25231773,78.60881302,88.57874201,428588.9667,426686.8367,0.007304688,0.008769381,6.12E-06,6.12E-06,-19.31865033,-21.63045033
JVASP-20909,NiSbS,198,P2_13,cubic,3D,0.0056,na,9.432651,10.84392,116.2444676,154.8563442,1306486,1316910.9,0.003059303,0.004109184,2.21E-06,2.21E-06,8.8671588,9.7883148
JVASP-20914,Ti3AlC2,194,P6_3/mmc,hexagonal,3D,0.0106,na,6.925821,8.948609667,1584.837714,1579.150942,1836680.807,1865769.51,0.031999854,0.029168785,5.30E-06,5.30E-06,16.82783467,18.2237156
JVASP-20918,Na2SiF6,150,P321,trigonal,3D,7.4017,na,-168.4453433,538.0980233,1266.758544,38.94454238,44921.53133,138.171219,0.508689682,0.023352724,0.844265277,0.844265277,-132.00651,525.88951
JVASP-20921,RbFe2S3,63,Cmcm,orthorhombic,3D,0.0174,na,35.82654133,40.06868633,1599.539259,1614.781512,149489.7267,150601.9867,0.206973908,0.212027596,7.70E-05,7.70E-05,37.46251067,43.500426
JVASP-20925,Ta4AlC3,194,P6_3/mmc,hexagonal,3D,0.0057,na,-28.10321167,-28.38101867,1636.092571,1641.774027,2199700.533,2169413.933,0.033262714,0.033939961,1.39E-06,1.39E-06,-26.94382033,-27.32072067
JVASP-20927,Ta9(NiS3)2,189,P-62m,hexagonal,3D,0.0777,na,-14.741611,-4.386059667,288.6159307,257.0138919,224802.898,228629.9497,0.024974153,0.017804323,5.49E-05,5.49E-05,na,na
JVASP-20930,Ba3(PO4)2,166,R-3m,trigonal,3D,5.3778,na,-280.9922667,392.8247267,1742.752888,897.1617592,22120.80467,5825.863867,0.849796552,0.513769121,1.134000178,1.134000178,-307.4873333,394.0940333
JVASP-20932,Cr2CuSe4,227,Fd-3m,cubic,3D,0.0509,na,2.798713767,4.815937967,3.905289332,11.55171303,498581.6,498063.3933,0.000262486,0.000758782,5.76E-06,5.76E-06,14.326749,17.402807
JVASP-20936,Co2CuS4,227,Fd-3m,cubic,3D,0.4623,na,29.621626,27.63774067,876.6784473,770.1136845,999131.2467,1008207.133,0.048975313,0.042370093,2.51E-06,2.51E-06,30.751025,28.886094
JVASP-20944,K7LiSi8,205,Pa3,cubic,3D,1.7271,na,-240.80968,344.97875,909.2427965,183.8199524,15679.492,1544.5713,0.486988021,0.109558746,0.777678682,0.777678682,-298.78479,350.04605
JVASP-20945,Ti2CuS4,227,Fd-3m,cubic,3D,0.0126,na,-19.544032,-21.01134233,474.7565305,544.2337984,1242918.4,1232758.233,0.018611809,0.021488302,2.10E-06,2.10E-06,-26.18281,-27.452828
JVASP-20946,PrPS4,142,I4_1/acd,tetragonal,3D,2.385,na,-321.1141067,338.6560233,732.626021,731.7366122,7124.905933,6199.829133,0.425499844,0.428642928,2.966959609,2.966959609,na,na
JVASP-20948,K2TaF7,14,P2_1/c,monoclinic,3D,5.5935,na,-471.43841,483.33405,7.317332876,16.36314584,33.15178733,70.30053867,0.004390261,0.00981525,483.783283,483.783283,-471.82441,482.1282167
JVASP-20949,SrSiO3,15,C2/c,monoclinic,3D,4.8379,na,-117.2616267,417.6531233,813.4174518,216.2241163,61210.82233,1232.460153,0.282203724,0.128782745,0.531865353,0.531865353,-120.97262,416.45195
JVASP-20950,UMoC2,62,Pnma,orthorhombic,3D,0.0003,na,29.208457,30.26863813,654.4233014,691.861598,487768.9,491269.34,0.041553337,0.043707631,6.80E-06,6.80E-06,32.4256862,33.30358097
JVASP-20951,BaTaS3,194,P6_3/mmc,hexagonal,3D,0.0066,na,-28.32890633,-31.003923,2176.431367,2006.620353,1151107.493,1159353.463,0.108402456,0.109311424,4.05E-06,4.05E-06,-23.80972433,-26.73277967
JVASP-20952,Li2ZrF6,162,P-31m,trigonal,3D,6.7356,na,-512.39023,570.0642267,343.8648728,513.615467,1279.9954,1606.626433,0.205076797,0.305250292,14.04534451,14.04534451,-519.9130333,563.0718133
JVASP-20953,ErPO4,141,I4_1/amd,tetragonal,3D,6.3142,na,-386.71023,423.26532,1855.39711,1471.496791,14083.51667,8481.3063,0.957901026,0.800345881,2.153280249,2.153280249,-156.5263667,415.3698067
JVASP-20954,TlGaS2,15,C2/c,monoclinic,3D,1.8212,na,-201.9470467,120.995512,1410.506931,650.0596072,33294.698,52889.94833,0.631591705,0.255753387,0.461617413,0.461617413,-186.53219,135.6095933
JVASP-20956,Zr2CoSi2,12,C2/m,monoclinic,3D,0.0019,na,-1.510961333,-1.784972033,151.7466855,158.23296,1323019.167,1321561.2,0.004916014,0.005109176,2.20E-06,2.20E-06,-2.0829402,-2.286941233
JVASP-20959,YAl3Ni,62,Pnma,orthorhombic,3D,0.0006,na,-14.2065329,-14.3644609,333.1645203,343.6450785,2317646.34,2303975.163,0.010498294,0.010672586,2.18E-06,2.18E-06,-11.24331643,-11.25005603
JVASP-20962,Er2(NiB2)3,65,Cmmm,orthorhombic,3D,0.0061,na,-13.2562473,-13.490475,767.4379059,785.6769455,2076870.267,2067443.633,0.015167739,0.015529013,1.51E-06,1.51E-06,-15.61416907,-16.05913703
JVASP-20963,Ni2Mo3N,213,P4_132,cubic,3D,0.0105,na,21.814767,22.279104,163.4986963,172.1557723,343568.34,346837.58,0.015478536,0.016369539,8.80E-06,8.80E-06,7.9317046,8.3927998
JVASP-20964,CeAlO3,140,I4/mcm,tetragonal,3D,0.001,na,-69.21637333,-69.69201133,349.8537139,352.5954752,72042.82633,71651.73033,0.12268158,0.12399391,3.86E-05,3.86E-05,-89.13268333,-89.869756
JVASP-20965,HoPO4,141,I4_1/amd,tetragonal,3D,6.2725,na,-415.6283067,427.55942,1893.552648,1489.106746,11881.2146,8390.159633,1.031980325,0.813168595,3.688875711,3.688875711,-189.43686,419.7674733
JVASP-20966,Li(CoGe)6,191,P6/mmm,hexagonal,3D,0.0031,na,0.031303367,0.023695933,529.6222201,553.3922073,2196498.917,2189535.163,0.005798449,0.006104101,2.66E-06,2.66E-06,na,na
JVASP-20968,Sr(NO3)2,205,Pa3,cubic,3D,3.726,na,-468.66206,452.9389,267.4451459,332.2931271,1217.6294,1619.7281,0.159604074,0.197576368,15.80615434,15.80615434,-474.80072,462.08159
JVASP-20970,Na5GeP3,14,P2_1/c,monoclinic,3D,0.9786,na,-249.6759167,342.2625067,1403.345305,650.9102984,22510.2063,5634.826133,0.644217841,0.37551819,1.756129721,1.756129721,-277.15112,358.03205