JID,Composition,Spg.numb.,Spg.symb.,Cryst.,Dimensionality,OPT SCF gap, MBJ gap,n-Seebeck,p-Seebeck,n-powerfact,p-powerfact,n-cond,p-cond,n-ZT,p-ZT,Avg.elec.mass,Avg.hole mass,n-mp-Seeb,p-mp-Seeb
JVASP-1612,NaLuS2,166,R-3m,trigonal,3D,2.4321,3.417,-256.3113033,299.09112,3054.972897,2090.630631,45977.79167,23860.23467,1.20469795,0.972671032,0.625096008,0.625096008,-239.0792633,309.91723
JVASP-3594,SrIF,129,P4/nmm,tetragonal,2D,4.5342,5.4437,-215.01213,401.79125,1808.714397,1164.907672,39059.66367,6759.424697,0.724668819,0.637193173,0.87514787,0.87514787,-104.2060433,391.73166
JVASP-2862,KLiSe,129,P4/nmm,tetragonal,3D,2.8159,4.4744,-82.592657,364.4984767,519.3433774,1514.307482,76225.32067,13273.34144,0.155487349,0.781191499,0.293415146,0.293415146,-79.411765,379.9231867
JVASP-1516,RbHoO2,166,R-3m,trigonal,3D,3.6781,5.4677,-231.66827,461.2180667,2478.532612,1764.551469,46195.20067,8288.596633,0.968999585,0.990902858,0.586636318,0.586636318,-242.0574933,451.79411
JVASP-2044,Ca2AsI,166,R-3m,trigonal,3D,1.4992,2.0037,-224.29747,324.3945333,2635.556627,1455.296392,52309.92333,12472.95897,0.985921272,0.73447821,0.516734568,0.516734568,-218.5673833,326.2419167
JVASP-3270,K3Sb,194,P6_3/mmc,hexagonal,3D,0.142,na,-58.05548267,469.3354433,328.4273736,1205.739721,97455.09367,5528.1591,0.082585188,0.682433398,0.117807343,0.117807343,-51.510282,449.0795767
JVASP-2829,NaPrO2,141,I4_1/amd,tetragonal,3D,3.624,5.2635,-132.6771867,382.4804533,1025.2427,3466.094746,59259.26833,20545.353,0.348583265,1.777351176,0.587943942,0.587943942,-107.1990967,403.6208767
JVASP-2664,Al2ZnSe4,82,I-4,tetragonal,3D,2.2925,3.5952,-71.01070667,390.49568,485.4117107,2572.479082,97414.001,16831.55267,0.118074403,1.357581938,0.220541905,0.220541905,-63.83191967,393.33749
JVASP-2598,Mg3NF3,221,Pm-3m,cubic,3D,3.9267,na,-122.6152,388.53056,842.5324111,1510.822104,56039.983,10008.361,0.297516595,0.814386962,0.482483595,0.482483595,-102.68237,390.39997
JVASP-3384,K2NiO2,139,I4/mmm,tetragonal,3D,0.7229,3.637,-424.0336233,293.6574633,339.0346142,743.1064891,2065.061703,15591.31073,0.19992724,0.371557258,32.11936172,32.11936172,-421.1267933,314.3952967
JVASP-3342,Ga2HgTe4,82,I-4,tetragonal,3D,0.3491,1.5136,-108.9555733,245.206,1524.744202,2257.953423,129006.1633,37633.35367,0.315200077,0.887969501,0.149264601,0.149264601,-105.5822133,279.1365633
JVASP-2631,Th2SeN2,164,P-3m1,trigonal,3D,1.6756,2.3956,-169.1701167,300.67892,1129.848816,2225.227133,38969.405,27559.2034,0.429880522,0.972299951,0.586987557,0.586987557,-151.0506633,365.6303733
JVASP-3768,RbIO3,160,R3m,trigonal,3D,2.6313,4.1923,-209.0830667,227.2036667,1756.028743,1028.693305,40173.95233,20134.12267,0.720011296,0.496004906,0.792406552,0.792406552,na,na
JVASP-1306,BaO,225,Fm-3m,cubic,3D,2.0483,3.4113,-239.3177067,443.14577,2687.336641,4396.548914,46921.55633,22388.175,1.060423085,1.957678414,0.688479549,0.688479549,-211.72895,438.33149
JVASP-1795,RbYO2,166,R-3m,trigonal,3D,3.7927,5.2533,-274.8872767,455.08261,2915.350749,1845.149959,38650.54067,8873.345033,1.230392625,1.036834464,0.785327316,0.785327316,-239.58815,452.4966567
JVASP-2199,MgSiP2,122,I-42d,tetragonal,3D,1.4581,2.2358,-114.4618333,275.52375,929.6424873,1621.26128,69642.51033,22299.768,0.263473402,0.745565514,0.369655546,0.369655546,-115.7351433,307.5623033
JVASP-2796,TlSbF6,166,R-3m,trigonal,3D,3.9239,3.7835,-316.64688,409.3615467,1693.646748,1372.273828,16600.417,8145.9818,0.875525908,0.779018978,1.268139663,1.268139663,-305.7809133,406.4157467
JVASP-1288,Li2S,225,Fm-3m,cubic,3D,3.5016,4.2624,-189.93731,349.10574,2227.041262,2428.125237,61731.62333,19923.10867,0.770660019,1.157282613,0.453274068,0.453274068,-182.27834,352.27847
JVASP-2328,NbCu3Se4,215,P-43m,cubic,3D,1.3444,na,-275.32483,282.21946,1970.569506,2057.016233,25995.669,25826.396,0.969444994,0.967008503,0.878908793,0.878908793,-307.47635,286.24267
JVASP-3603,NdClO,129,P4/nmm,tetragonal,3D,4.7207,5.9559,-102.0870693,421.2525533,653.1531309,1377.339924,59688.872,7587.8839,0.205726929,0.786111834,0.397211698,0.397211698,-149.74361,440.6877833
JVASP-4062,Ca3PCl3,221,Pm-3m,cubic,3D,1.7013,2.5639,-238.14284,223.96853,2579.087247,1998.849281,45476.913,39847.956,1.006454644,0.823110225,0.677079053,0.677079053,-244.67154,229.0075
JVASP-4083,ClF,14,P2_1/c,monoclinic,0D,2.0924,3.7989,-192.6705867,397.8035933,1086.845078,555.3820785,28739.337,3808.455793,0.472845767,0.315917776,1.124410598,1.124410598,-225.6127133,360.8697233
JVASP-3240,ZnPbF6,148,R-3,trigonal,3D,1.8943,2.8509,-157.2488867,443.1302567,891.2779988,1047.028957,36012.39033,5328.2267,0.373952529,0.611928607,0.696159002,0.696159002,-153.6309967,425.29441
JVASP-3027,AlAgO2,194,P6_3/mmc,hexagonal,2D,1.6665,2.4001,-140.0931733,435.8842933,1423.241041,2997.839973,68005.63967,15675.698,0.354920378,1.563404329,0.698721731,0.698721731,-139.6888867,470.1158667
JVASP-2895,Ho2CF2,164,P-3m1,trigonal,3D,1.1682,2.1655,-235.4696033,430.0204233,2691.618273,1935.52936,48265.346,9897.715833,1.01676125,1.027313116,0.594745111,0.594745111,-232.5721033,419.6781167
JVASP-1969,Ca2BrN,166,R-3m,trigonal,3D,2.393,na,-249.05936,505.8311667,2551.34107,733.356091,41081.70067,2804.0372,1.050741671,0.429629336,0.668947273,0.668947273,-248.9669467,506.12773
JVASP-3006,Ca(CdP)2,164,P-3m1,trigonal,3D,0.8327,1.769,-114.16653,226.23564,1268.730232,2145.197704,102425.7003,41955.683,0.283911652,0.850393933,0.343206473,0.343206473,-111.0615,229.2103467
JVASP-3285,AlAgSe2,122,I-42d,tetragonal,3D,1.2191,na,-49.01136167,358.4181033,288.8007592,2061.151256,120399.17,15911.65833,0.064785531,1.104175673,0.147696227,0.147696227,-47.88663433,357.1752567
JVASP-2355,ZnGeP2,122,I-42d,tetragonal,3D,1.0535,1.9322,-210.77465,240.9825467,4187.899421,2732.586608,94308.89867,47072.94267,1.123430509,1.023752227,0.255173591,0.255173591,-238.71381,242.2034567
JVASP-1798,KNa2Sb,225,Fm-3m,cubic,3D,0.9198,1.9332,-46.669165,269.65373,262.2973156,1911.901406,120429.75,26293.756,0.055420226,0.883044519,0.13132663,0.13132663,-39.987469,273.88207
JVASP-3261,Er2SeO2,164,P-3m1,trigonal,3D,2.327,3.6458,-207.7626067,263.0386,1814.219039,2310.132675,42339.88467,30600.52417,0.716464512,0.971853947,0.657041409,0.657041409,-218.3624267,260.37234
JVASP-2077,DyTlS2,166,R-3m,trigonal,3D,1.6517,2.3259,-313.9273967,120.7891067,2698.854687,848.3278571,27178.778,60423.562,1.201163583,0.2761291,1.091506882,1.091506882,-310.0457,121.0000433
JVASP-1248,BeTe,216,F-43m,cubic,3D,2.2019,2.8207,-196.72398,231.68189,2655.994343,2909.688831,68629.76967,54207.87367,0.882902423,0.997974111,0.400784886,0.400784886,na,na
JVASP-1669,RbErS2,166,R-3m,trigonal,3D,2.3579,3.4694,-266.3106633,275.6983833,3312.12895,1694.898908,46244.518,22184.70797,1.333016705,0.800955643,0.643948539,0.643948539,-238.8534067,275.33008
JVASP-3702,CaHCl,129,P4/nmm,tetragonal,3D,3.8001,5.0363,-164.2319167,399.3952533,1085.354916,856.5415623,38915.35133,5011.1283,0.437638419,0.487041315,0.851563119,0.851563119,-164.1316667,392.8432833
JVASP-1783,PrCuO2,166,R-3m,trigonal,3D,2.4216,2.6374,-245.2214767,476.1831767,2217.135334,2027.515933,36960.74333,9118.480533,0.928068788,1.104245241,0.693216573,0.693216573,-253.6070833,480.06357
JVASP-3834,K2PtBr6,225,Fm-3m,cubic,3D,1.1131,1.8834,-215.85406,357.34736,2140.59239,2309.43109,45942.38467,18085.22233,0.857254747,1.225212778,0.584266995,0.584266995,-211.62461,375.01872
JVASP-3204,HoAgTe2,113,P-42_1m,tetragonal,3D,0.8853,1.2773,-196.4956033,201.2146533,1576.268134,1885.57922,39852.063,46978.18733,0.585267587,0.666696032,0.907357653,0.907357653,-214.2275733,209.4636367
JVASP-2400,Tl2SiF6,225,Fm-3m,cubic,3D,5.0402,6.1097,-201.67719,373.68512,2243.748067,2164.713312,55164.607,15502.03733,0.828208628,1.096206452,0.453881392,0.453881392,-232.30726,366.65968
JVASP-1972,Sr2NCl,166,R-3m,trigonal,3D,1.921,2.9556,-229.5014933,518.3544967,2566.976227,586.3521069,48726.375,2006.162517,0.980862541,0.345570992,0.581111016,0.581111016,-240.9174467,524.6024933
JVASP-1711,RbSmSe2,166,R-3m,trigonal,3D,1.8694,2.9684,-242.6182,251.4352667,2788.964891,1664.585561,46721.42033,26322.3376,1.069354817,0.746961663,0.596086908,0.596086908,-238.6660567,244.8964333
JVASP-1927,VCl2,164,P-3m1,trigonal,2D,1.2598,0.01,-387.56741,489.60155,1852.866026,397.9367809,12205.26957,1572.336113,1.005821222,0.235536022,1.952756205,1.952756205,-378.6382233,484.1522233
JVASP-3492,RbInTe2,140,I4/mcm,tetragonal,3D,1.2026,1.8288,-154.6231433,279.4908467,1346.087109,2391.604671,58033.41067,30620.68533,0.434792281,1.136485101,0.411656489,0.411656489,-140.1926267,287.0801367
JVASP-4071,GaCuI4,82,I-4,tetragonal,3D,1.5166,2.0795,-270.6158267,376.4593033,1761.462895,1126.137507,21310.08767,7976.208133,0.854847448,0.634731944,1.049566308,1.049566308,-300.8180533,401.7932067
JVASP-2550,BaAg2GeS4,121,I-42m,tetragonal,3D,0.6816,1.8193,-64.02749133,133.8016833,384.4607867,784.7761944,95479.47367,44245.855,0.097755025,0.295480593,0.208487163,0.208487163,-65.52280167,151.88935
JVASP-3738,SrHBr,129,P4/nmm,tetragonal,3D,4.0739,5.2321,-112.72992,379.1322967,747.5885473,1556.317414,57750.381,11183.633,0.250808729,0.834842868,0.480075892,0.480075892,-175.8032433,290.8221667
JVASP-1393,GaP,216,F-43m,cubic,3D,1.4822,2.3733,-219.91276,250.78482,5802.773839,3528.282634,119987.1633,56099.74367,1.356719001,1.222537633,0.190514184,0.190514184,-249.04402,244.65555
JVASP-1195,ZnO,186,P6_3mc,hexagonal,3D,0.9654,2.4728,-65.13842833,352.11328,423.8706656,1562.709898,99889.39667,12653.15467,0.108922824,0.818885937,0.217729671,0.217729671,-54.78883867,358.52577
JVASP-2460,NdOF,166,R-3m,trigonal,3D,4.5051,6.1518,-307.78847,410.9761233,2073.490408,1368.019533,22333.155,9763.047867,0.978713784,0.745315335,15.47656114,15.47656114,-326.25124,437.6271
JVASP-3186,YZnPO,166,R-3m,trigonal,3D,1.2505,na,-287.7861233,201.7762567,2421.943834,2104.231161,28964.535,44761.15787,1.109158694,0.784695474,0.968320897,0.968320897,-312.38229,202.1794633
JVASP-1264,K2O,225,Fm-3m,cubic,3D,2.0345,5.371,-115.14854,509.70833,804.9300657,1069.02334,60707.35033,4114.752567,0.27568104,0.627106688,0.462595369,0.462595369,-104.03532,521.33077
JVASP-1636,LiZnAs,216,F-43m,cubic,3D,0.724,na,-40.95744433,232.82432,239.5851955,3389.669332,142821.7267,62531.75933,0.043722139,1.102414226,0.094001148,0.094001148,-69.787092,225.03393
JVASP-3063,KAuSe,63,Cmcm,orthorhombic,2D,2.0463,3.1169,-210.8167067,259.51028,1793.715299,1438.679829,40717.16467,20365.1028,0.672409083,0.637096711,0.630142839,0.630142839,-207.0311267,282.8001267
JVASP-1396,YZn,221,Pm-3m,cubic,3D,0.0176,na,7.004252,6.9055853,154.6235715,150.4678196,3151753,3155314.4,0.002013039,0.001950972,8.83E-07,8.83E-07,na,na
JVASP-1837,LiYSe2,166,R-3m,trigonal,3D,1.5989,na,-234.09251,247.5898433,2908.307975,1854.015961,52841.12367,35202.62967,1.10108241,0.782812851,0.521503691,0.521503691,-219.14722,258.1169833
JVASP-1369,YN,225,Fm-3m,cubic,3D,0.3107,1.1697,-153.41779,229.6909,2528.768053,2524.677126,107437.91,47854.00233,0.662811192,0.878856989,0.021507487,0.021507487,-134.56828,209.46607
JVASP-2523,KAuS,63,Cmcm,orthorhombic,2D,2.2957,3.4507,-242.0134833,287.3769433,2158.16133,1710.929335,38097.577,18406.6871,0.843028843,0.760204247,0.802495781,0.802495781,-230.3983367,303.2340867
JVASP-3864,Rb2TiCl6,225,Fm-3m,cubic,3D,2.016,2.5114,-408.64696,387.09258,800.3908746,2053.394853,4792.979633,13703.85567,0.469546362,1.126255687,3.286757482,3.286757482,-429.04299,412.32645
JVASP-3198,ErAgTe2,113,P-42_1m,tetragonal,3D,0.8973,1.263,-204.85013,195.2804667,1662.367825,1810.737863,39295.384,47898.16433,0.627251076,0.636233429,1.006727336,1.006727336,-218.3606967,203.87227
JVASP-3324,Pr2TeO2,139,I4/mmm,tetragonal,3D,1.7913,2.4905,-360.4291033,320.6385667,1449.092223,4973.769716,9862.509033,44814.475,0.780733319,1.873150546,3.633723113,3.633723113,-355.5702633,311.7683867
JVASP-3717,AlH3,167,R-3c,trigonal,3D,2.4637,3.7313,-90.96255867,459.46103,626.8467042,3263.407062,74510.58967,15427.72067,0.183971055,1.725852983,0.330809132,0.330809132,-89.06015433,473.6176633
JVASP-3225,NaSrP,189,P-62m,hexagonal,3D,1.4133,1.9896,-141.4053767,208.7765867,1218.829204,1263.53019,63199.33933,24824.191,0.366330559,0.455801871,0.52689842,0.52689842,-110.01464,211.7871667
JVASP-3837,InClO,59,Pmmn,orthorhombic,2D,2.4161,3.959,-85.273051,386.8692967,522.7846704,1991.073995,70889.427,12368.32586,0.162258746,1.012104975,0.353376168,0.353376168,-101.5127383,383.34024
JVASP-3561,TlIO3,160,R3m,trigonal,3D,2.8669,3.3095,-127.0392133,304.9258133,1050.472672,1346.090319,65085.287,14577.976,0.310435342,0.682879682,0.333874608,0.333874608,-198.49601,323.4135067
JVASP-3246,Cd(GaTe2)2,82,I-4,tetragonal,3D,0.9695,1.8768,-153.45003,264.6758633,2096.001175,2176.771107,88542.894,31080.204,0.491717928,0.923105704,0.125229394,0.125229394,-128.24311,301.2347267
JVASP-2175,Ga2Te5,87,I4/m,tetragonal,3D,0.9558,1.4485,-151.3223967,294.5366767,2754.190963,4171.676331,118244.0433,48973.28733,0.626589478,1.727950822,0.19487923,0.19487923,-186.2312667,312.50797
JVASP-3840,InBrO,59,Pmmn,orthorhombic,2D,2.06,3.7317,-76.39793033,411.2075067,477.1887183,1946.202105,81057.694,11504.08547,0.136977898,1.042214777,0.263580374,0.263580374,-79.57912867,442.07759
JVASP-2619,Tl3AsSe3,160,R3m,trigonal,3D,0.3152,na,-138.1111667,380.22366,1017.82583,2324.560005,50570.16967,16768.57667,0.311989153,1.146980838,0.275327422,0.275327422,-199.3989567,363.2367267
JVASP-2658,Rb2Sn2O3,166,R-3m,trigonal,3D,1.1802,2.4851,-185.2731533,85.684246,1738.30051,478.7653149,50956.31767,64764.245,0.649501808,0.154369731,0.565616242,0.565616242,-181.39243,87.442652
JVASP-1870,LiVO2,166,R-3m,trigonal,3D,0.0013,0.0024,2.043515833,2.067107033,97.21866512,103.0188044,855046.22,856777.0467,0.00490573,0.005225645,6.37E-06,6.37E-06,9.419827667,9.767525433
JVASP-3306,Si4P4Ru,1,P1,triclinic,3D,1.5232,1.7408,-274.2629767,307.5890567,2215.142525,1480.687408,31886.198,16116.99567,0.953578423,0.736706398,1.082572174,1.082572174,-265.0649333,322.6059967
JVASP-1267,BaTe,225,Fm-3m,cubic,3D,1.6051,2.1481,-184.3059,250.17656,2371.872412,2482.784589,69825.306,39668.50267,0.792005724,0.965299015,0.382790146,0.382790146,-192.98283,261.60314
JVASP-2673,Al2HgTe4,82,I-4,tetragonal,3D,1.1155,1.7384,-138.1574467,308.0484967,1936.291084,2280.135692,97900.69167,24009.25467,0.508441283,1.054836115,0.211220635,0.211220635,-128.0005167,334.9372867
JVASP-3747,CrClO,59,Pmmn,orthorhombic,2D,0.0303,0.0008,-265.5095233,174.2471167,1139.570725,894.5532508,14779.47677,25480.5397,0.554725378,0.356383559,2.546800137,2.546800137,-252.7679567,166.7210733
JVASP-3903,Bi2Te2S,166,R-3m,trigonal,3D,0.0962,na,-97.97074533,194.5321133,954.5828639,2856.75451,102523.128,74801.01467,0.19479192,0.756574679,0.096814208,0.096814208,-80.45203933,237.46923
JVASP-4023,DySI,59,Pmmn,orthorhombic,2D,2.5766,3.0872,-327.8792,281.6405633,2452.158174,1857.052711,19468.16063,23596.51333,1.154584441,0.906779906,1.260435143,1.260435143,-332.79538,279.6333933
JVASP-2466,CaMg2N2,164,P-3m1,trigonal,3D,2.4869,na,-258.9323933,358.7175567,3140.076961,1994.16886,46708.72167,15639.33467,1.181584925,0.993967621,0.551827148,0.551827148,-86.90513433,361.98542
JVASP-3366,Ba2MnZn2(AsO)2,139,I4/mmm,tetragonal,3D,0.0015,0.0036,-26.79590587,-28.21466337,629.3027582,609.2972239,717957.2867,716711.2267,0.102026693,0.102954662,6.66E-06,6.66E-06,na,na
JVASP-3465,InPS4,82,I-4,tetragonal,3D,2.3292,3.3999,-176.9275933,314.1626067,1103.555234,1368.414537,33529.82033,13891.667,0.422922391,0.72236726,0.359570577,0.359570577,-212.9466367,306.3701733
JVASP-1348,MnS,160,R3m,trigonal,3D,0.0239,na,-12.019118,-12.11720633,401.4545542,407.4084902,2707622.733,2702723.567,0.006152255,0.006263586,1.05E-06,1.05E-06,2.3345584,3.247251
JVASP-3462,LiInTe2,122,I-42d,tetragonal,3D,1.3541,2.2901,-151.3261267,297.2815067,1339.93558,2549.185845,53319.804,28843.64833,0.372550826,1.135718363,0.221106703,0.221106703,-138.5898933,287.4752933
JVASP-1756,HfSnPd,216,F-43m,cubic,3D,0.1117,0.3852,-245.02971,290.21338,2847.099013,3118.624375,47420.38533,37027.82533,1.103160198,1.301495017,0.139745086,0.139745086,-238.26039,281.69901
JVASP-1504,NaTaN2,166,R-3m,trigonal,3D,1.3296,2.2363,-283.21523,319.7573467,3018.079487,3898.688014,37294.89567,57924.47233,1.240556974,1.286506645,0.783466249,0.783466249,-280.5235433,318.39807
JVASP-3729,SrHI,129,P4/nmm,tetragonal,3D,3.6077,4.138,-209.04018,229.2820767,2373.08044,1256.924757,54692.61433,26721.56867,0.859427674,0.5708245,0.483885636,0.483885636,-226.2950967,261.3901867
JVASP-3003,Ca(ZnP)2,164,P-3m1,trigonal,3D,0.9064,na,-235.74908,193.6962667,4784.747195,2061.646508,80186.792,55035.55967,1.32658789,0.735737025,0.612743072,0.612743072,-227.5768967,196.9894467
JVASP-2454,Sm2SO2,164,P-3m1,trigonal,3D,3.0431,4.6223,-204.2871667,301.0616067,1597.764632,1845.023863,38774.719,19198.21397,0.663478303,0.886355091,0.71495004,0.71495004,-204.5371567,302.5817333
JVASP-2937,K3Sb2Au3,166,R-3m,trigonal,3D,1.0098,1.5478,-214.60545,297.4076833,2845.375554,3827.257785,85236.732,44186.934,0.727516399,1.599429922,1.340888411,1.340888411,-229.8718733,285.7048367
JVASP-4167,VBrO,59,Pmmn,orthorhombic,2D,0.001,na,-7.159816667,-8.370535,892.1082062,932.5936346,547000.241,542493.551,0.046637135,0.049067474,1.92E-05,1.92E-05,-0.803496833,-1.980178
JVASP-2083,TaSbRu,216,F-43m,cubic,3D,0.8752,1.0638,-200.67113,321.26315,2386.980762,3985.780533,59276.03233,38618.158,0.875703631,1.642395367,0.425821202,0.425821202,-168.47066,331.98206
JVASP-1462,KCrS2,166,R-3m,trigonal,3D,1.1517,0.0017,-311.4632267,315.77072,2890.307838,1358.594607,29682.32233,13424.54617,1.320799394,0.713929059,0.825206197,0.825206197,-273.5457867,333.3025
JVASP-2062,TlBiSe2,166,R-3m,trigonal,3D,0.1684,na,-118.3275967,203.4595167,1581.362701,3272.870269,114152.971,79625.28267,0.349836221,0.84259884,0.071683802,0.071683802,-115.31294,209.21838
JVASP-3933,TmCl3,167,R-3c,trigonal,3D,4.707,6.1697,-292.01599,427.0202067,2134.980871,949.2979637,25132.743,5131.8571,0.968810447,0.548715579,0.914430543,0.914430543,-397.65555,470.5790267
JVASP-3732,Sr2H6Ru,225,Fm-3m,cubic,3D,2.1793,2.3836,-252.18388,558.12287,2110.227978,322.1617972,33181.402,1034.2235,0.917346832,0.192178878,0.724927529,0.724927529,-257.46853,568.445
JVASP-2038,MnCl2,166,R-3m,trigonal,2D,1.5527,0.0004,-324.6281467,440.1874167,1521.054665,1526.468472,13400.1951,7954.291067,0.784093901,0.869135452,2.137328809,2.137328809,-337.1310567,441.7172367
JVASP-2472,CdPtF6,148,R-3,trigonal,3D,2.444,2.6975,-398.3691,495.44903,950.6392806,222.813483,5991.778,908.0117933,0.549414559,0.133086948,3.365495889,3.365495889,-381.0831633,453.0700667
JVASP-1963,BiTeI,156,P3m1,trigonal,2D,1.2002,1.6831,-144.7685667,294.19097,1204.18722,2863.174188,59392.15633,32350.78567,0.34307337,1.246732312,0.335200962,0.335200962,-126.9669433,313.9501333
JVASP-2023,TlBiTe2,166,R-3m,trigonal,3D,0.164,na,-146.56419,193.0667933,2149.208878,3540.899694,104327.448,94596.65033,0.451468024,0.942443156,0.14603953,0.14603953,na,na
JVASP-2337,ZnSnP2,122,I-42d,tetragonal,3D,0.4006,1.6891,-125.9755433,248.1995933,2095.517438,3200.605956,131635.01,51963.483,0.359806697,1.182375599,0.076832109,0.076832109,-132.5128133,254.4747533
JVASP-3558,Rb2MnCl4,139,I4/mmm,tetragonal,3D,0.995,0.0009,-318.9215967,259.98542,621.5851025,594.9111539,17328.36263,41964.27467,0.302796305,0.219118188,1539.664917,1539.664917,-343.0605333,279.2092967
JVASP-3294,K3Cu3As2,166,R-3m,trigonal,3D,1.3626,na,-241.5511233,376.5467233,3538.142031,2062.493786,60195.94333,14419.69967,1.242048816,1.12506805,0.559760442,0.559760442,-239.02859,371.96543
JVASP-3072,LiBeP,129,P4/nmm,tetragonal,3D,1.3472,na,-135.85429,248.7179167,1201.981666,4121.088998,71451.188,64683.43533,0.31348614,1.402470506,0.729588658,0.729588658,-127.71281,250.8337267
JVASP-1618,NaTmS2,166,R-3m,trigonal,3D,2.382,3.203,-254.9987467,309.08999,3002.643685,2075.143684,45689.42,22159.15833,1.188332874,0.980352437,0.618956668,0.618956668,-238.16458,315.8742267
JVASP-2733,Li2CeAs2,164,P-3m1,trigonal,3D,0.7062,0.604,-518.2322733,400.8913933,186.935304,1874.877674,671.6855633,11951.24467,0.108582151,1.005885726,19.0916035,19.0916035,-432.7330133,428.9417267