JID,Composition,Spg.numb.,Spg.symb.,Cryst.,Dimensionality,OPT SCF gap, MBJ gap,n-Seebeck,p-Seebeck,n-powerfact,p-powerfact,n-cond,p-cond,n-ZT,p-ZT,Avg.elec.mass,Avg.hole mass,n-mp-Seeb,p-mp-Seeb
JVASP-1126,KTaO3,221,Pm-3m,cubic,3D,2.1657,na,-278.29035,416.74548,4394.719621,2465.044077,56745.951,14193.284,1.608522657,1.292237797,0.586027466,0.586027466,-277.61516,426.59565
JVASP-1139,LaAlO3,167,R-3c,trigonal,3D,4.0364,na,-211.2129433,408.0536667,1668.34137,2100.570262,37397.25333,12541.74133,0.703117992,1.12114215,0.71555499,0.71555499,-263.2305433,435.9097133
JVASP-1096,CuS,194,P6_3/mmc,hexagonal,3D,0.0056,na,19.095835,18.84519733,659.1062435,634.8261587,2144764.87,2174023.083,0.013726251,0.013386946,4.01E-06,4.01E-06,17.99363033,17.72127833
JVASP-1102,TePb,225,Fm-3m,cubic,3D,0.8895,na,-163.10733,319.47148,3077.080577,11038.7818,115662.3233,108157.58,0.631911616,2.445406609,0.159316653,0.159316653,-162.43683,308.06319
JVASP-1108,SnS,62,Pnma,orthorhombic,2D,0.9397,na,-163.0122,272.56339,2581.70793,2517.503043,99975.04367,36577.38367,0.595237929,1.039460922,0.273322043,0.273322043,-160.46645,277.8120933
JVASP-1116,PbSe,225,Fm-3m,cubic,3D,0.1653,na,-156.20455,172.35109,2734.151524,3518.534105,112056.0267,118449.6267,0.662961342,0.697074704,0.019566965,0.019566965,-123.02748,165.43587
JVASP-1075,Mg2Si,225,Fm-3m,cubic,3D,0.0791,na,-214.43593,261.19725,3694.789171,4874.983914,80351.604,71455.55333,0.981125079,1.435423152,0.006726441,0.006726441,-202.76315,240.78946
JVASP-1077,Mg2Si,225,Fm-3m,cubic,3D,0.043,na,-180.90613,230.28872,2815.80674,4313.12828,86039.183,81329.30167,0.565549414,0.873459485,0.001027591,0.001027591,-202.76315,240.78946
JVASP-1138,LaAlO3,167,R-3c,trigonal,3D,4.0373,na,-251.4970233,397.4332633,1458.560328,2222.478511,23050.906,13950.892,0.709486407,1.176025117,1.016424188,1.016424188,-263.2305433,435.9097133
JVASP-1154,GeTe,225,Fm-3m,cubic,3D,0.0624,na,-276.90416,256.75448,5317.853863,12560.07213,69354.946,190526.8,1.475377445,2.343788813,0.337824025,0.337824025,-301.22835,248.01061
JVASP-1128,KTaO3,221,Pm-3m,cubic,3D,2.1282,na,-265.94475,415.81979,4238.153059,2558.621208,59923.034,14797.75,1.489789666,1.333145143,0.58059132,0.58059132,-277.61516,426.59565
JVASP-1156,GeTe,160,R3m,trigonal,2D,0.1597,na,-268.6432667,238.9783067,6517.950022,5819.670572,95198.80433,101956.9603,1.260628327,1.470038741,0.196926447,0.196926447,-276.5070233,229.03401
JVASP-1110,SnS,62,Pnma,orthorhombic,2D,0.0402,na,-168.9379167,173.98134,4348.826541,2652.819677,148293.8433,92495.39367,0.828058325,0.669810515,0.186191056,0.186191056,-160.46645,277.8120933
JVASP-1118,CuBiSeO,129,P4/nmm,tetragonal,2D,0.0374,na,-135.4900333,358.13495,1369.203612,2841.426205,83954.52747,21560.99973,0.33755561,1.328086655,0.075411573,0.075411573,-159.63392,337.8978733
JVASP-1103,TePb,225,Fm-3m,cubic,3D,1.1187,1.4049,-122.689,304.18018,2158.253302,10939.47165,143380.8533,118231.86,0.433158642,2.390733993,0.173664932,0.173664932,-162.43683,308.06319
JVASP-1153,GeTe,225,Fm-3m,cubic,3D,0.0849,na,-269.7688,245.17421,5189.001689,12859.90513,71301.78,213938.13,1.403047584,2.092663482,0.105561925,0.105561925,-301.22835,248.01061
JVASP-1136,BaF2,225,Fm-3m,cubic,3D,6.8195,9.2842,-177.41552,528.1028,1390.071102,855.3175426,44162.515,3066.8352,0.448316672,0.504266631,0.408249113,0.408249113,-124.33182,552.04
JVASP-1111,PbS,225,Fm-3m,cubic,3D,0.2352,na,-130.5444167,139.60715,1964.249726,2184.707235,115260.3933,112092.8533,0.470158399,0.495409065,0.183150979,0.183150979,-135.9518,142.97743
JVASP-1100,Sb2Se3,62,Pnma,orthorhombic,3D,0.8753,na,-251.0555233,254.82445,2942.712541,1603.948594,58748.889,24215.1895,1.001615273,0.76908128,1.298288146,1.298288146,-159.39193,248.6589667
JVASP-1112,PbS,225,Fm-3m,cubic,3D,0.2204,1.2978,-133.82214,143.58687,2003.866369,2274.641434,111895.55,110327.4267,0.488331679,0.522185653,0.190651388,0.190651388,-135.9518,142.97743
JVASP-1131,LiF,225,Fm-3m,cubic,3D,9.7325,na,-195.3332367,523.14044,1040.112196,2674.588423,27260.12833,9772.830667,0.474070004,1.468269953,1.040711436,1.040711436,-180.64905,538.38654
JVASP-1142,DyScO3,62,Pnma,orthorhombic,3D,4.4613,5.3774,-393.2060033,322.2093,1172.707703,982.6926342,7820.788133,9979.521633,0.654995344,0.534861025,3.03684897,3.03684897,-428.06115,365.3748367
JVASP-1151,MgB2,191,P6/mmm,hexagonal,3D,0.0108,0.0052,6.234176667,6.108197967,409.4010053,395.8702282,9484821.167,9517086.7,0.001741069,0.001676179,2.92E-07,2.92E-07,5.92912,5.8837843
JVASP-1087,CoSb3,204,Im3,cubic,3D,0.1805,na,-268.18535,158.84035,2118.705368,1399.423164,29457.81067,55466.069,0.839108712,0.398839572,0.004438826,0.004438826,-291.34232,172.70191
JVASP-1101,Sb2Se3,62,Pnma,orthorhombic,3D,0.7352,na,-260.82827,251.8826133,4106.468054,1814.040337,59618.008,29100.01233,1.571073074,0.81034211,0.412472069,0.412472069,-159.39193,248.6589667
JVASP-1071,Sb2Te3,166,R-3m,trigonal,2D,0.0238,na,-225.6942467,157.0482067,9133.599604,5277.158148,183067.48,214702.6033,1.36660275,0.82527511,0.003804559,0.003804559,-190.4082733,209.42638
JVASP-1084,LaTe,225,Fm-3m,cubic,3D,0.0182,na,-3.813685,-4.091693867,69.16695654,79.44762955,4755640.633,4745420.233,0.000604316,0.000696889,5.88E-07,5.88E-07,na,na
JVASP-1080,Mg2Ge,225,Fm-3m,cubic,3D,0.1529,na,-147.17126,227.9708667,1965.04297,4297.614474,90724.80333,82693.001,0.417582249,0.908566716,0.000727968,0.000727968,-166.7634,227.17854
JVASP-1135,BaF2,225,Fm-3m,cubic,3D,6.593,na,-109.26449,532.29367,701.2109394,793.2227751,58734.13767,2799.578,0.239318231,0.4684355,0.405833997,0.405833997,-124.33182,552.04
JVASP-1083,Mg2Sn,225,Fm-3m,cubic,3D,0.207,na,-40.88492,69.61042,373.3161292,1144.634135,223331.74,236220.8267,0.02625708,0.080878935,2.40E-05,2.40E-05,-5.9561835,43.358662
JVASP-1127,KTaO3,221,Pm-3m,cubic,3D,2.2284,3.3263,-279.05588,418.83315,4375.253962,2453.915698,56185.068,13988.706,1.607011343,1.289484094,0.606065237,0.606065237,-277.61516,426.59565
JVASP-1144,KCl,225,Fm-3m,cubic,3D,5.044,na,-127.3113,460.55344,879.5566374,1098.119876,54266.26167,5177.1374,0.317186473,0.62911243,0.585909619,0.585909619,-116.98273,462.21157
JVASP-1134,CeO2,225,Fm-3m,cubic,3D,2.0639,na,-565.5482467,355.2395667,581.249459,4689.823244,1817.285833,37163.26067,0.344222546,1.986912274,8.012006404,8.012006404,-580.99283,461.69651
JVASP-1098,CuS,194,P6_3/mmc,hexagonal,3D,0.0046,na,16.537478,16.31870667,588.4034381,567.1050977,2576062.18,2607850.26,0.010564799,0.01031654,2.93E-06,2.93E-06,17.99363033,17.72127833
JVASP-1107,Ag2Te,14,P2_1/c,monoclinic,3D,0.0169,na,-3.208237,67.31652087,405.8396051,1822.02583,191173.48,215716.8233,0.039482906,0.194313008,2.01E-05,2.01E-05,-21.954661,85.18316367
JVASP-1070,Sb2Te3,166,R-3m,trigonal,2D,0.0265,na,-189.3346533,173.2840733,5591.006206,4223.841165,157433.7653,142503.6367,0.888963349,0.877533941,0.002336106,0.002336106,-190.4082733,209.42638
JVASP-1114,PbSe,225,Fm-3m,cubic,3D,0.2153,na,-129.55274,174.62095,2069.087158,3341.671583,123278,109590.0367,0.470562369,0.688396252,0.178584912,0.178584912,-123.02748,165.43587
JVASP-1064,Tl4Te3Pb,140,I4/mcm,tetragonal,3D,0.3622,na,-134.9365167,141.6583633,1557.914881,1233.162886,85665.46433,61277.45933,0.342949147,0.363305185,0.007953944,0.007953944,-135.9558367,145.3695867
JVASP-1158,GeTe,160,R3m,trigonal,2D,0.0494,na,-284.97373,215.5993967,11852.79419,7299.575849,147562.2167,159008.3233,1.844928329,1.333722275,0.103120535,0.103120535,-276.5070233,229.03401
JVASP-1088,CoSb3,204,Im3,cubic,3D,0.0316,na,-226.05395,150.08122,1766.363003,1357.76433,34566.528,60279.78467,0.622540415,0.370563602,0.00154793,0.00154793,-291.34232,172.70191
JVASP-1081,Mg2Sn,225,Fm-3m,cubic,3D,0.2011,na,-10.376995,51.18366867,32.63442936,860.5373292,303062.9233,328478.4567,0.002040504,0.053837661,1.28E-05,1.28E-05,-5.9561835,43.358662
JVASP-1106,Ag2Te,14,P2_1/c,monoclinic,3D,0.007,na,-4.420611,76.23308833,303.507439,1865.87189,160554.588,176945.13,0.038326786,0.236491965,2.60E-05,2.60E-05,-21.954661,85.18316367
JVASP-1132,CeO2,225,Fm-3m,cubic,3D,1.9721,na,-590.4962,371.51779,472.0240174,4560.470926,1353.723233,33040.793,0.280478402,2.000935673,11.32257292,11.32257292,-580.99283,461.69651
JVASP-1157,GeTe,160,R3m,trigonal,2D,0.7461,0.8241,-258.28693,250.0233333,5932.3403,5838.932921,93400.43333,93141.414,1.168946173,1.546386324,0.210472184,0.210472184,-276.5070233,229.03401
JVASP-1137,BaF2,225,Fm-3m,cubic,3D,6.5999,na,-111.47881,516.06662,730.0470776,1246.99292,58744.36567,4682.226833,0.238236063,0.72803077,0.406055027,0.406055027,-124.33182,552.04
JVASP-1125,Cu2Se,225,Fm-3m,cubic,3D,0.0298,na,-165.76563,59.39231633,4262.6445,391.5232684,155127.98,110993.3733,0.418495153,0.033946517,0.000105264,0.000105264,na,na
JVASP-1068,Bi2Se3,166,R-3m,trigonal,2D,0.1112,na,-99.82800867,196.7569933,1109.191243,4353.467412,101518.1633,113739.947,0.220448812,0.972026145,0.002036791,0.002036791,-63.53643533,254.25059
JVASP-1092,ZrNiSn,216,F-43m,cubic,3D,0.0862,na,-242.94856,332.12155,2856.289839,2631.146012,48392.005,23853.43,1.117627176,1.227451667,0.466641266,0.466641266,na,na
JVASP-1120,SrSe,225,Fm-3m,cubic,3D,2.2347,na,-185.25529,264.4872,2436.737415,2114.953546,71001.49533,30233.715,0.803241431,0.933524661,0.348725372,0.348725372,-198.0982,267.831
JVASP-1085,LaTe,225,Fm-3m,cubic,3D,0.0068,na,-10.392,-10.488006,601.1652372,607.9899354,5566671.367,5527268.167,0.004406888,0.004488348,5.08E-07,5.08E-07,na,na
JVASP-1141,DyScO3,62,Pnma,orthorhombic,3D,4.4753,na,-406.34014,330.4548767,1130.330978,939.4755038,7027.605467,9014.833167,0.639167447,0.51806664,3.199341576,3.199341576,-428.06115,365.3748367
JVASP-1113,PbS,225,Fm-3m,cubic,3D,0.0482,na,-113.70781,101.99975,1717.314006,1545.121713,132821.7267,148513.0033,0.353165651,0.280972009,0.000447759,0.000447759,-135.9518,142.97743
JVASP-1123,Cu2Se,225,Fm-3m,cubic,3D,0.2271,na,-157.20452,24.66401033,4108.327502,70.33361976,166239.7967,115620.6967,0.387253717,0.005649938,9.58E-05,9.58E-05,na,na
JVASP-1155,GeTe,225,Fm-3m,cubic,3D,0.017,na,-215.17941,222.83513,4025.115329,13137.8385,86931.446,264579.75,0.730165301,1.503514642,0.000945725,0.000945725,-301.22835,248.01061
JVASP-1145,KCl,225,Fm-3m,cubic,3D,5.3264,8.394,-122.16601,450.65347,849.5996739,1235.096759,56926.37867,6081.567667,0.300525257,0.699315553,0.518898285,0.518898285,-116.98273,462.21157
JVASP-1115,PbSe,225,Fm-3m,cubic,3D,0.4392,0.9618,-112.5487,153.37196,1662.594688,2752.042296,131251.8467,116993.8867,0.361083949,0.528629168,0.143661174,0.143661174,-123.02748,165.43587
JVASP-1089,CoSb3,204,Im3,cubic,3D,0.0986,na,-332.43814,187.84315,2819.518947,1948.330916,25512.51833,55216.897,1.348092518,0.569983306,0.060155054,0.060155054,-291.34232,172.70191
JVASP-1146,KCl,225,Fm-3m,cubic,3D,5.0992,na,-102.3939,427.96769,686.6263004,1493.633987,65489.589,8154.967267,0.225363212,0.821949972,0.415883233,0.415883233,-116.98273,462.21157
JVASP-1129,LiF,225,Fm-3m,cubic,3D,8.9436,na,-181.5622,535.19426,1004.010979,2375.464474,30457.03267,8293.266967,0.442451279,1.320746508,0.89880411,0.89880411,-180.64905,538.38654
JVASP-1124,Cu2Se,225,Fm-3m,cubic,3D,0.2363,na,-159.26834,125.60566,2507.003549,1182.989806,98831.649,74982.96033,0.351814758,0.159316231,0.000150169,0.000150169,na,na
JVASP-1122,SrSe,225,Fm-3m,cubic,3D,1.8824,na,-177.39185,245.33927,2454.179648,2170.563348,77990.01867,36061.04667,0.772748212,0.907208939,0.323269022,0.323269022,-198.0982,267.831
JVASP-932,Na,194,P6_3/mmc,hexagonal,3D,0.0195,na,-5.051307567,-5.279796167,221.3391062,236.5205187,8394825.6,8349449.633,0.001077447,0.001160012,3.35E-07,3.35E-07,-5.5891603,-5.861336433
JVASP-930,Na,194,P6_3/mmc,hexagonal,3D,0.0272,na,-5.333586167,-5.602669733,225.2915351,242.8496222,7626240.8,7580680.5,0.001207484,0.001312086,3.68E-07,3.68E-07,-5.5891603,-5.861336433
JVASP-931,Na,194,P6_3/mmc,hexagonal,3D,0.0132,0.0443,-5.525928233,-5.7697051,242.412895,259.2858704,7752997.367,7705341.567,0.001279815,0.001379583,3.63E-07,3.63E-07,-5.5891603,-5.861336433
JVASP-901,Ir,225,Fm-3m,cubic,3D,0.0027,0.0009,-1.2295241,-1.2478383,33.32953695,34.32101115,22047288.67,22041617,6.20E-05,6.38E-05,1.27E-07,1.27E-07,na,na
JVASP-892,Hf,194,P6_3/mmc,hexagonal,3D,0.0015,na,-17.94506533,-17.82594967,1211.127014,1205.180942,3406285.967,3384908.9,0.016048859,0.016216791,8.43E-07,8.43E-07,-9.385020067,-9.392624967
JVASP-806,Hf,194,P6_3/mmc,hexagonal,3D,0.0234,na,-15.17463693,-15.05924407,725.6132507,720.0659655,2922635.033,2906704.433,0.011833518,0.011945914,9.98E-07,9.98E-07,-9.385020067,-9.392624967
JVASP-802,Hf,194,P6_3/mmc,hexagonal,3D,0.0065,0.0131,-15.426687,-15.44728133,861.7994702,871.4734409,3224860.233,3206682.3,0.012106894,0.01242272,8.75E-07,8.75E-07,-9.385020067,-9.392624967
JVASP-994,Sb,166,R-3m,trigonal,2D,0.0047,na,-75.418044,0.82224648,4621.165866,8.950667906,766089.1633,677331.7533,0.103792346,0.000280478,5.86E-06,5.86E-06,-81.43086467,31.40139843
JVASP-992,Sb,166,R-3m,trigonal,2D,0.0106,na,-97.260962,58.69788767,3330.854424,1457.641467,357048.68,331936.0133,0.140054196,0.062931375,1.63E-05,1.63E-05,-81.43086467,31.40139843
JVASP-993,Sb,166,R-3m,trigonal,2D,0.0083,0.0315,-96.45542033,77.42160567,2720.720683,2226.868018,302189.3033,292568.8233,0.134677213,0.114115369,2.03E-05,2.03E-05,-81.43086467,31.40139843
JVASP-869,Dy,166,R-3m,trigonal,3D,0.0008,na,-3.7934289,-3.933620433,138.0557624,142.2640755,2483412.033,2480552.233,0.00231092,0.002386038,1.13E-06,1.13E-06,na,na
JVASP-870,Dy,166,R-3m,trigonal,3D,0.0009,na,-3.2909659,-3.587019133,351.6804146,342.4948384,2899639.133,2897330.2,0.005104766,0.004986938,9.62E-07,9.62E-07,na,na
JVASP-1051,Y,194,P6_3/mmc,hexagonal,3D,0.0096,na,6.9994778,6.483593933,1621.865395,1547.394127,3358530.5,3367785.133,0.019112402,0.01819005,8.54E-07,8.54E-07,2.1582228,1.653118
JVASP-1049,Y,194,P6_3/mmc,hexagonal,3D,0.0216,na,4.183785,3.619134867,872.8310564,807.8381812,2836073.567,2842354.8,0.011753337,0.010881689,1.06E-06,1.06E-06,2.1582228,1.653118
JVASP-1050,Y,194,P6_3/mmc,hexagonal,3D,0.0045,0.0074,5.176178967,4.634097133,1221.36447,1149.774075,2943033,2950491.433,0.016035751,0.015081746,1.01E-06,1.01E-06,2.1582228,1.653118
JVASP-1021,Tc,194,P6_3/mmc,hexagonal,3D,0.0023,na,-2.003503333,-1.9726387,523.9738119,532.1179663,13643786,13635154.33,0.001366423,0.001390039,2.10E-07,2.10E-07,-1.573385767,-1.506994567
JVASP-1019,Tc,194,P6_3/mmc,hexagonal,3D,0.0016,na,-1.951060333,-1.886244933,429.3568724,433.5239253,12178242.67,12171395,0.001247024,0.001262047,2.37E-07,2.37E-07,-1.573385767,-1.506994567
JVASP-1020,Tc,194,P6_3/mmc,hexagonal,3D,0.0021,0.003,-2.254058067,-2.213671333,538.899689,546.1417928,12624977,12616289,0.001514744,0.001537629,2.27E-07,2.27E-07,-1.573385767,-1.506994567
JVASP-1016,Tb,166,R-3m,trigonal,3D,0.0008,na,-3.153539633,-3.4138184,265.9271703,262.0324397,2638071.767,2636017.967,0.004218102,0.004169009,1.06E-06,1.06E-06,na,na
JVASP-1017,Tb,166,R-3m,trigonal,3D,0.001,na,-5.090268867,-5.4513008,435.1011306,423.1434476,3019225.267,3014954,0.006211006,0.006071701,9.29E-07,9.29E-07,na,na
JVASP-1009,Sn,227,Fd-3m,cubic,3D,0.1196,na,-73.927278,17.942361,1855.363291,79.02951109,339484.17,245487.9133,0.142731782,0.00568745,1.51E-05,1.51E-05,-55.202578,5.6121344
JVASP-1007,Sn,227,Fd-3m,cubic,3D,0.0691,na,-57.60956433,-1.465949667,1367.482219,0.712506781,412033.48,331551.4133,0.087649386,4.49E-05,1.02E-05,1.02E-05,-55.202578,5.6121344
JVASP-1008,Sn,227,Fd-3m,cubic,3D,0.0412,0.2424,-35.256599,-5.4602562,719.0390156,15.53684239,578457.7233,521118.7733,0.03528283,0.000780867,5.97E-06,5.97E-06,-55.202578,5.6121344
JVASP-823,As,166,R-3m,trigonal,2D,0.0048,na,-24.85710967,30.32887267,397.7951188,605.3963027,472936.5833,484870.9867,0.016759148,0.031635368,7.41E-06,7.41E-06,27.37337123,36.01598827
JVASP-821,As,166,R-3m,trigonal,2D,0.0124,na,23.7265586,25.6398936,1201.765714,1528.981011,1297207.9,1402401.367,0.031653117,0.038712733,2.10E-06,2.10E-06,27.37337123,36.01598827
JVASP-822,As,166,R-3m,trigonal,2D,0.0063,0.0344,20.4521663,22.11978487,997.5895589,1223.397016,1216967.267,1308050.867,0.027723011,0.032729499,2.24E-06,2.24E-06,27.37337123,36.01598827
JVASP-936,Nd,194,P6_3/mmc,hexagonal,3D,0.0011,na,-26.267754,-26.70379233,1989.729976,2033.43031,2988118.667,2956355.6,0.029150905,0.029771796,9.66E-07,9.66E-07,-26.17813033,-26.65428467
JVASP-937,Nd,194,P6_3/mmc,hexagonal,3D,0.0076,0.0033,-28.88068967,-29.27788833,2507.817601,2552.629665,3096629.9,3061184.6,0.034415787,0.035002339,9.40E-07,9.40E-07,-26.17813033,-26.65428467
JVASP-813,Ag,225,Fm-3m,cubic,3D,0.0277,0.0269,-2.821626133,-2.754811133,134.1962687,127.5497579,16855494.67,16807223.67,0.000324595,0.000308759,1.69E-07,1.69E-07,-2.605971,-2.5733401
JVASP-972,Pt,225,Fm-3m,cubic,3D,0.006,0.004,12.97298233,12.963774,2464.685369,2464.802492,14644745.67,14666254.67,0.006860736,0.00685519,1.91E-07,1.91E-07,13.084325,13.083625
JVASP-950,O2,12,C2/m,monoclinic,3D,1.1925,na,-411.34461,403.8222133,2283.646864,1330.36303,12734.01697,8197.160033,1.189353876,0.738361449,4.201792479,4.201792479,-414.3474333,450.3418967
JVASP-948,O2,12,C2/m,monoclinic,3D,1.5929,na,-428.0661133,473.0276967,673.212748,178.9543785,3609.170667,797.18822,0.395173177,0.107148254,5.802423285,5.802423285,-414.3474333,450.3418967
JVASP-949,O2,12,C2/m,monoclinic,3D,1.1274,2.0845,-414.63347,429.9729367,1827.14078,1015.36192,10034.69463,5476.594167,0.982341532,0.584985112,4.520417104,4.520417104,-414.3474333,450.3418967
JVASP-1060,Zr,194,P6_3/mmc,hexagonal,3D,0.0064,na,-20.33435733,-19.85958967,1456.338296,1383.851605,3444315.7,3425633.2,0.015315598,0.014636207,8.47E-07,8.47E-07,-20.28294333,-19.75654333
JVASP-1058,Zr,194,P6_3/mmc,hexagonal,3D,0.0106,na,-24.788073,-24.52186167,1754.224191,1708.440296,2847176.967,2825181.4,0.024365335,0.024035924,1.00E-06,1.00E-06,-20.28294333,-19.75654333
JVASP-1059,Zr,194,P6_3/mmc,hexagonal,3D,0.0118,0.0025,-24.52789033,-24.09866067,1759.048547,1685.399442,2934255.7,2912546.367,0.022274713,0.021523376,9.87E-07,9.87E-07,-20.28294333,-19.75654333
JVASP-847,Ca,194,P6_3/mmc,hexagonal,3D,0.0089,na,27.12992997,27.9331814,1607.937792,1696.632004,1654150.3,1671408.933,0.041640647,0.04394953,2.00E-06,2.00E-06,16.79545383,18.14290017
JVASP-845,Ca,194,P6_3/mmc,hexagonal,3D,0.0148,na,18.50157583,19.7557079,750.2037763,866.6776989,2149189.767,2170003.633,0.01421767,0.016460219,1.55E-06,1.55E-06,16.79545383,18.14290017
JVASP-846,Ca,194,P6_3/mmc,hexagonal,3D,0.0091,0.0216,26.70223083,27.61658807,1360.339043,1468.597345,1738350.133,1758263.767,0.03304508,0.035666015,1.92E-06,1.92E-06,16.79545383,18.14290017
JVASP-817,Al,225,Fm-3m,cubic,3D,0.0126,na,-3.228020833,-3.1687035,326.2877965,313.82928,31313252,31255773.67,0.000423096,0.000407396,9.04E-08,9.04E-08,-3.5138402,-3.4948194
JVASP-815,Al,225,Fm-3m,cubic,3D,0.0073,na,-3.484815133,-3.460623967,382.0382361,375.9757017,31459176,31394311,0.000494537,0.000487262,8.96E-08,8.96E-08,-3.5138402,-3.4948194
JVASP-816,Al,225,Fm-3m,cubic,3D,0.007,0.0104,-3.047201867,-2.988542733,285.7601223,274.3524878,30775078.67,30717789.67,0.000377037,0.000362288,9.19E-08,9.19E-08,-3.5138402,-3.4948194
JVASP-886,Ga,64,Cmce,orthorhombic,3D,0.0067,na,17.865263,19.85781533,1276.317173,1604.035504,6406067,6508827.467,0.015232216,0.018515729,7.95E-07,7.95E-07,8.145494433,11.27161017
JVASP-884,Ga,64,Cmce,orthorhombic,3D,0.0031,na,13.4465958,16.17252933,1106.017719,1418.982685,5720321.733,5827200.9,0.008611449,0.01131609,8.96E-07,8.96E-07,8.145494433,11.27161017
JVASP-885,Ga,64,Cmce,orthorhombic,3D,0.0022,0.0139,16.5291914,18.52711267,1444.361766,1658.962143,5739489.433,5853473.5,0.012357231,0.01442767,8.24E-07,8.24E-07,8.145494433,11.27161017
JVASP-1034,Tm,194,P6_3/mmc,hexagonal,3D,0.0052,na,1.5376079,1.079181667,110.7586092,84.69293038,3649098.2,3651735.067,0.001000614,0.000775994,8.96E-07,8.96E-07,2.963476323,2.517686513
JVASP-1035,Tm,194,P6_3/mmc,hexagonal,3D,0.0292,0.0112,6.133685033,5.642835367,1012.963337,942.4853056,3526044.6,3534818.833,0.010636906,0.009860883,8.39E-07,8.39E-07,2.963476323,2.517686513
JVASP-796,Ho,194,P6_3/mmc,hexagonal,3D,0.0072,na,-0.26492401,-0.710132574,3.452781882,2.078075245,3895300.5,3894821.833,3.91E-05,3.22E-05,8.28E-07,8.28E-07,2.112129667,1.620640933