JID,Composition,Spg.numb.,Spg.symb.,Cryst.,Dimensionality,OPT SCF gap, MBJ gap,n-Seebeck,p-Seebeck,n-powerfact,p-powerfact,n-cond,p-cond,n-ZT,p-ZT,Avg.elec.mass,Avg.hole mass,n-mp-Seeb,p-mp-Seeb
JVASP-25242,Ba,194,P6_3/mmc,hexagonal,3D,0.0116,0.0041,23.24123257,23.3337116,851.7913747,862.1145547,1222882.9,1239130.433,0.026390291,0.026524987,2.29E-06,2.29E-06,23.0972239,23.87871037
JVASP-25243,C,229,Im-3m,cubic,3D,3.0909,4.0525,-285.57044,218.16009,3807.688398,2259.569839,46691.18533,47476.11367,1.48677867,0.868307875,0.517092904,0.517092904,-306.47929,216.53594
JVASP-25245,B,134,P4_2/nnm,tetragonal,3D,0.0022,na,26.42853567,26.915703,831.7776898,869.6234488,1255632.087,1270817.647,0.025553697,0.026618094,2.59E-06,2.59E-06,na,na
JVASP-25246,Ba,140,I4/mcm,tetragonal,3D,0.0052,0.0038,-34.95700387,-30.8902733,1034.23043,920.6485874,476746.99,465001.8533,0.068934041,0.060242665,6.31E-06,6.31E-06,na,na
JVASP-25247,Te,12,C2/m,monoclinic,3D,0.003,0.0142,15.11570673,23.89107683,3957.458528,4593.274256,2124533.033,2175741.467,0.053600781,0.063027344,1.59E-06,1.59E-06,na,na
JVASP-25248,Xe,194,P6_3/mmc,hexagonal,3D,6.1472,8.0744,-108.4742633,440.6414567,797.9222719,1257.504446,68590.391,6386.380833,0.258343106,0.710044611,0.454587612,0.454587612,na,na
JVASP-25249,B,134,P4_2/nnm,tetragonal,3D,0.0193,na,-22.67373733,-23.41081467,317.8668316,328.1934027,503682.21,496783.3567,0.021750617,0.022949567,6.13E-06,6.13E-06,na,na
JVASP-25250,N2,136,P4_2/mnm,tetragonal,3D,6.6755,8.7581,-244.5333067,501.25763,1223.470513,773.9054566,20733.06767,3242.229773,0.595394079,0.450389091,1.675825833,1.675825833,na,na
JVASP-25251,H2,194,P6_3/mmc,hexagonal,3D,2.8278,0.0038,-164.9827267,293.66639,631.2657154,605.8449899,23193.26933,7067.1995,0.296887334,0.338984107,1.216456967,1.216456967,na,na
JVASP-25253,Tb,194,P6_3/mmc,hexagonal,3D,0.0021,0.041,0.625366033,0.417370667,127.3970515,113.3337891,1900657.667,1901970.033,0.003319315,0.002953446,1.49E-06,1.49E-06,na,na
JVASP-25254,Pu,70,Fddd,orthorhombic,3D,1.00E-04,na,-5.660955267,-5.8074562,941.8729264,955.8841626,4221782.9,4218663.233,0.008774813,0.008920618,6.64E-07,6.64E-07,na,na
JVASP-25255,Si,148,R-3,trigonal,3D,0.0713,0.4656,-112.1764567,41.97277533,1816.262679,227.7251677,145857.1533,109093.442,0.241354331,0.029040103,4.90E-05,4.90E-05,na,na
JVASP-25257,K,64,Cmce,orthorhombic,3D,0.0086,0.0004,-4.936902033,-6.193180267,125.9475799,168.6725955,3053111.667,3029647.5,0.001723539,0.002323766,9.11E-07,9.11E-07,na,na
JVASP-25258,C,65,Cmmm,orthorhombic,2D,0.017,3.9856,-20.26539267,-12.31736733,249.7068183,505.1607384,149609.1813,159935.031,0.076111111,0.117120495,3.48E-05,3.48E-05,na,na
JVASP-25259,Pu,176,P6_3/m,hexagonal,3D,0.0037,na,-34.05106733,-34.26221233,288.0481294,290.3293164,244988.76,244292.9067,0.038001134,0.038377867,1.07E-05,1.07E-05,na,na
JVASP-25261,I,139,I4/mmm,tetragonal,3D,0.0103,0.0035,5.6488768,5.390244033,79.20158765,77.72428,7178831.567,7200059.233,0.000603109,0.000557635,5.20E-05,5.20E-05,na,na
JVASP-25262,Sc,178,P6_122,hexagonal,3D,0.0081,na,18.467323,18.25843167,476.2392009,470.1654,1328048.767,1333029.5,0.014060235,0.013840189,2.11E-06,2.11E-06,na,na
JVASP-25264,K,194,P6_3/mmc,hexagonal,3D,0.0075,0.0088,-6.561711,-7.5055468,216.9299871,243.1422731,3489144.033,3458532.333,0.002833544,0.003182439,8.07E-07,8.07E-07,na,na
JVASP-25265,Rb,194,P6_3/mmc,hexagonal,3D,0.0302,na,-0.861936833,-2.031814693,45.14060183,48.57240842,3013989.433,3006604.7,0.000555631,0.000583172,9.31E-07,9.31E-07,na,na
JVASP-25272,O2,166,R-3m,trigonal,3D,1.2061,0.004,-375.59566,469.5342467,1118.196088,823.8086276,7941.7834,3730.114133,0.622211832,0.480716982,3.330028357,3.330028357,na,na
JVASP-25274,C,194,P6_3/mmc,hexagonal,3D,4.9027,5.4301,-291.06751,191.1388333,5558.964132,1696.206395,59552.10033,46396.11167,1.743569079,0.654195327,0.624869899,0.624869899,na,na
JVASP-25275,C,194,P6_3/mmc,hexagonal,3D,4.7379,5.2096,-265.2619067,188.5001033,4491.513232,1659.012348,63063.654,48074.71267,1.517799524,0.63199378,0.414922128,0.414922128,na,na
JVASP-25276,Xe,225,Fm-3m,cubic,3D,6.1487,8.3814,-102.23225,466.67328,708.001552,1835.880937,67742.05567,8429.8266,0.228802907,1.007011683,0.403708189,0.403708189,na,na
JVASP-25277,O2,12,C2/m,monoclinic,3D,1.2777,3.5091,-325.7878333,436.22379,991.2699215,580.0817862,9138.901,3029.330633,0.534689668,0.333387509,3.3896032,3.3896032,na,na
JVASP-25278,He,225,Fm-3m,cubic,3D,17.9682,31.7336,-344.76702,585.11544,2569.832653,1066.124381,21619.88667,3114.0441,1.245912172,0.626188962,1.201303507,1.201303507,na,na
JVASP-25280,C,194,P6_3/mmc,hexagonal,3D,4.6968,5.1718,-286.6837133,193.07724,4597.782991,1598.001063,54900.77,41901.349,1.645712766,0.640011252,0.475967517,0.475967517,na,na
JVASP-25284,Pa,139,I4/mmm,tetragonal,3D,0.0004,0.0002,4.087728967,4.002297267,253.8547309,244.2698881,14278939.33,14287976,0.000724974,0.000696292,1.97E-07,1.97E-07,na,na
JVASP-25286,H2,139,I4/mmm,tetragonal,3D,9.0304,14.23,-308.4878433,355.82379,2906.579554,1013.149783,30144.99067,8173.342633,1.239961825,0.553878893,1.063089671,1.063089671,na,na
JVASP-25288,H2,139,I4/mmm,tetragonal,3D,9.0156,14.3336,-302.9817867,362.54496,2968.677944,1126.696496,32178.93,8857.655867,1.291410602,0.59977915,0.912013454,0.912013454,na,na
JVASP-25290,B,1,P1,triclinic,3D,0.0027,0.0038,22.53937067,22.00848033,378.3140606,374.2637901,2169036.6,2171309.7,0.032807138,0.031405902,6.22E-06,6.22E-06,na,na
JVASP-25291,H2,225,Fm-3m,cubic,3D,2.6319,0.0185,-160.89139,446.39948,627.4507507,1090.180528,24238.963,5470.8028,0.291561965,0.630647478,1.151596092,1.151596092,na,na
JVASP-25300,Si,1,P1,triclinic,3D,0.0095,0.0503,-2.825898667,0.470062167,220.8460522,161.3978126,383309.39,371123.0033,0.011335894,0.010708311,1.27E-05,1.27E-05,na,na
JVASP-25301,Ce,63,Cmcm,orthorhombic,3D,0.0002,na,5.662223433,5.732482033,613.7679082,611.6580691,4100548.967,4102164.4,0.005922099,0.005886603,7.02E-07,7.02E-07,13.81051677,13.85594493
JVASP-25306,C,227,Fd-3m,cubic,3D,4.4572,5.0352,-270.21441,197.54281,4682.605114,2313.972164,64131.371,59297.40333,1.627820447,0.788255147,0.16131548,0.16131548,-264.02074,238.88717
JVASP-25307,N2,194,P6_3/mmc,hexagonal,3D,6.839,9.0417,-368.97527,449.7094033,1848.213479,1353.677455,13690.71067,7035.7935,0.985573877,0.755865034,1.93084891,1.93084891,na,na
JVASP-25308,N2,198,P2_13,cubic,3D,2.5571,0.0027,-148.51554,418.56665,773.8119733,605.4722517,35082.59,3455.9305,0.301225892,0.352235229,0.643671599,0.643671599,na,na
JVASP-25310,Br,229,Im-3m,cubic,3D,0.0046,0.0034,26.294531,26.047366,4388.80755,4326.166661,6347689.567,6376401,0.030127989,0.029588671,4.39E-07,4.39E-07,na,na
JVASP-25311,P,225,Fm-3m,cubic,3D,0.6062,0.0307,2.532270833,2.473766067,296.79087,283.7701367,46283930.33,46371317.33,0.00026301,0.000252455,6.11E-08,6.11E-08,na,na
JVASP-25313,C,166,R-3m,trigonal,2D,0.7697,na,-297.44071,259.1390333,1078.986738,1482.137811,12246.03917,21770.88133,0.612070183,0.737709072,2.349540669,2.349540669,na,na
JVASP-25315,I,229,Im-3m,cubic,3D,0.0059,0.0054,25.362951,25.004154,3929.546423,3842.624788,6108616.467,6146157,0.028084556,0.027325809,4.55E-07,4.55E-07,na,na
JVASP-25316,S,225,Fm-3m,cubic,3D,0.004,na,2.3570286,2.3525004,136.1322963,135.6895902,24503688.67,24518117.33,0.000227027,0.00022616,1.15E-07,1.15E-07,na,na
JVASP-25317,Sm,194,P6_3/mmc,hexagonal,3D,0.0066,0.0025,-9.987690233,-10.47070193,471.3387831,515.5752209,4953794.4,4942078.4,0.004984956,0.005451207,5.84E-07,5.84E-07,-3.944442533,-4.281676567
JVASP-25319,Ti,225,Fm-3m,cubic,3D,0.0089,0.0339,-8.458874267,-8.5979715,541.658421,558.9933956,7570078.1,7561616.967,0.003091082,0.003195059,3.67E-07,3.67E-07,-6.8023297,-6.8638496
JVASP-25320,Ta,225,Fm-3m,cubic,3D,0.0138,0.0371,6.562034567,6.521803767,545.4976684,539.5802889,12668228,12685880.67,0.001774394,0.001753123,2.22E-07,2.22E-07,6.9932613,6.9350626
JVASP-25321,Np,129,P4/nmm,tetragonal,3D,0.0009,0.001,-3.351386333,-3.352788667,573.7038761,567.8209317,3464856.2,3465393.333,0.006294229,0.006227973,9.85E-07,9.85E-07,-1.678607,-1.719763667
JVASP-25322,Sn,229,Im-3m,cubic,3D,0.0031,0.003,-2.133165133,-2.146148333,106.9371395,108.0984696,23500635.67,23469296.67,0.000185902,0.00018817,1.20E-07,1.20E-07,-1.9986449,-2.067597
JVASP-25323,Tb,225,Fm-3m,cubic,3D,0.0173,0.0075,7.2232065,6.939455067,247.9520967,229.5325542,4752342.4,4766433.667,0.002204876,0.002043102,5.84E-07,5.84E-07,na,na
JVASP-25324,Yb,229,Im-3m,cubic,3D,0.0369,0.0071,35.596125,35.539275,2327.57743,2383.47226,1836955.733,1887091.567,0.048535237,0.048744059,1.51E-06,1.51E-06,32.715631,33.882545
JVASP-25325,Ho,229,Im-3m,cubic,3D,0.0834,0.0337,-22.74836733,-22.89363033,2351.881256,2372.200456,4544801.567,4526078.2,0.021692872,0.021942068,6.15E-07,6.15E-07,na,na
JVASP-25326,P,74,Imma,orthorhombic,3D,0.0036,0.0531,-23.293557,-9.386343,4950.24914,2305.364042,1022652.723,888347.8367,0.087560267,0.051126667,3.82E-06,3.82E-06,-14.144233,-8.47108102
JVASP-25327,Ti,229,Im-3m,cubic,3D,0.0363,0.0178,-4.4417143,-4.294071567,132.4895664,123.7735489,6715532.233,6712577.1,0.00074435,0.000695881,4.32E-07,4.32E-07,-2.5228747,-2.3774662
JVASP-25331,Se,221,Pm-3m,cubic,3D,0.0025,0.0058,0.44227645,0.40366975,5.765725182,4.804743924,29475848,29486134,8.00E-06,6.67E-06,9.49E-08,9.49E-08,-0.17875592,-0.078990608
JVASP-25334,Ge,141,I4_1/amd,tetragonal,3D,0.0092,na,-1.663576033,-1.642042633,57.71204656,56.71749308,20591155.33,20569123.67,0.000119917,0.000118668,1.39E-07,1.39E-07,-1.245389393,-1.24470154
JVASP-25335,S,148,R-3,trigonal,3D,1.9605,3.0271,-395.1570567,290.56224,1791.301104,1190.791004,11368.09127,13120.1531,0.983900338,0.584088296,1.747908012,1.747908012,-406.4155367,362.04187
JVASP-25336,Sb,194,P6_3/mmc,hexagonal,3D,0.0074,0.0068,-2.362118633,-2.107250367,108.4966443,85.58872491,19332420.33,19301627.67,0.000229907,0.000179079,1.51E-07,1.51E-07,-4.5559113,-4.497829667
JVASP-25337,Tl,194,P6_3/mmc,hexagonal,3D,0.0146,0.0017,-3.828598967,-3.599597833,151.9621613,137.3389241,10397192.87,10362041.53,0.000585374,0.000519589,2.81E-07,2.81E-07,-4.224244033,-3.9220148
JVASP-25339,Sn,141,I4_1/amd,tetragonal,3D,0.0023,na,-2.402709633,-2.338692133,89.18829224,84.38296155,15615845,15588179.67,0.000235808,0.000223423,1.84E-07,1.84E-07,-2.217903,-2.233558867
JVASP-25340,H2,139,I4/mmm,tetragonal,3D,8.8425,14.0752,-305.3754367,324.3833967,2944.46298,976.4994189,31350.26367,9279.7764,1.277015146,0.530275633,0.971592341,0.971592341,na,na
JVASP-25341,Ag,194,P6_3/mmc,hexagonal,3D,0.0115,0.0159,-1.059773073,-1.143397903,26.57926789,28.71019077,15801997.67,15784077.33,7.25E-05,7.82E-05,1.78E-07,1.78E-07,-0.840306043,-1.042901403
JVASP-25342,V,225,Fm-3m,cubic,3D,0.0358,0.0199,5.7071662,5.669369067,322.532899,318.4761854,9902229.333,9908490.633,0.001349661,0.001332018,2.83E-07,2.83E-07,na,na
JVASP-25343,Cr,225,Fm-3m,cubic,3D,0.0081,0.0192,-12.11340733,-12.172769,1835.177484,1851.07965,12506777.67,12492413.33,0.006152684,0.006209351,2.23E-07,2.23E-07,-5.4056571,-5.4842936
JVASP-25344,Mn,225,Fm-3m,cubic,3D,0.0088,na,-2.650577233,-2.647616833,105.57642,105.3100001,15027474.67,15023092.67,0.000285899,0.000285178,1.88E-07,1.88E-07,na,na
JVASP-25345,Zr,225,Fm-3m,cubic,3D,0.0128,0.0092,-5.146162933,-5.239585733,245.1115694,253.833299,9255433.1,9246017.1,0.001106797,0.001148067,3.03E-07,3.03E-07,-5.6258825,-5.7111121
JVASP-25346,Nb,225,Fm-3m,cubic,3D,0.0235,0.0051,2.522829667,2.470998567,84.05646774,80.66844595,13206729.33,13211700,0.000264454,0.000253643,2.13E-07,2.13E-07,na,na
JVASP-25347,Mo,225,Fm-3m,cubic,3D,0.008,0.0114,-13.353228,-13.252422,2790.329041,2741.224623,15648866.67,15608246.33,0.007079477,0.006962555,1.85E-07,1.85E-07,-12.842007,-12.882095
JVASP-25348,Tc,225,Fm-3m,cubic,3D,0.016,0.004,-0.431242163,-0.43264756,4.140406288,4.167388224,22263863.33,22263602.67,7.59E-06,7.65E-06,1.27E-07,1.27E-07,na,na
JVASP-25349,Ru,225,Fm-3m,cubic,3D,0.0028,0.0038,0.363615583,0.370637687,2.952286946,3.067599905,22329222,22330557.33,5.38E-06,5.59E-06,1.26E-07,1.26E-07,0.83268888,0.83851556
JVASP-25350,Hf,225,Fm-3m,cubic,3D,0.0142,0.0091,-6.0509151,-6.121183767,328.9560001,336.2324376,8984536.833,8973642.7,0.001521188,0.001557137,3.13E-07,3.13E-07,-7.0113722,-7.100308
JVASP-25351,W,225,Fm-3m,cubic,3D,0.0056,0.0176,-9.2515976,-9.356120167,1191.801278,1216.736336,13924204,13899683,0.003553685,0.003630515,1.99E-07,1.99E-07,-4.8703383,-4.9749446
JVASP-25352,Re,225,Fm-3m,cubic,3D,0.0054,0.0256,-3.7432557,-3.7448604,266.6717002,266.6286928,19031715.67,19012342,0.000569605,0.000569538,1.48E-07,1.48E-07,na,na
JVASP-25353,Os,225,Fm-3m,cubic,3D,0.0032,0.0043,0.147632817,0.176958203,0.466069869,0.66966837,21383816.33,21385449.67,8.83E-07,1.27E-06,1.32E-07,1.32E-07,-0.3592151,-0.34821575
JVASP-25355,Rb,166,R-3m,trigonal,3D,0.0002,0.0009,-1.578365117,-2.5599987,38.49706056,42.139613,2752143.967,2744748.967,0.000579681,0.00063806,1.01E-06,1.01E-06,na,na
JVASP-25356,Sr,194,P6_3/mmc,hexagonal,3D,0.0022,0.0036,34.776595,41.337993,984.0021852,1262.470795,747827.99,759847.78,0.042854192,0.054789138,6.26E-06,6.26E-06,na,na
JVASP-25359,Sm,166,R-3m,trigonal,3D,0.002,na,-9.550932867,-9.718820533,564.250093,546.1900942,3288544.367,3278314.7,0.00781292,0.007603709,8.95E-07,8.95E-07,na,na
JVASP-25360,Dy,194,P6_3/mmc,hexagonal,3D,0.007,0.0023,-1.488000967,-1.909540633,173.1606002,155.662556,4417298.3,4418327.8,0.001683686,0.001591122,7.11E-07,7.11E-07,2.665836333,2.149046967
JVASP-25361,Cr,194,P6_3/mmc,hexagonal,3D,0.0031,0.0012,-5.398147933,-5.381694433,387.8995412,386.8679788,10081181.67,10075426.33,0.001559292,0.001556542,2.81E-07,2.81E-07,-5.053297767,-5.0119925
JVASP-25367,Sr,229,Im-3m,cubic,3D,0.0059,0.0159,34.353753,35.263672,1571.145612,1695.018892,1331275.867,1363074.133,0.041338256,0.044062718,2.19E-06,2.19E-06,22.409027,24.928599
JVASP-25368,Si,217,I-43m,cubic,3D,1.3603,1.9343,-274.43767,333.49273,2539.614062,2338.246649,33719.434,21024.108,1.135990339,1.236321182,1.027289073,1.027289073,na,na
JVASP-25369,Si,223,Pm-3n,cubic,3D,1.2955,na,-296.23092,280.90652,1716.21456,2119.999382,19557.386,26866.562,0.883044331,0.992370338,1.09496272,1.09496272,na,na
JVASP-25370,Tm,194,P6_3/mmc,hexagonal,3D,0.0036,na,-6.386482433,-6.8782778,213.3901814,243.5516225,2803002.867,2796287.1,0.003173689,0.003625063,9.90E-07,9.90E-07,na,na
JVASP-25371,Tl,166,R-3m,trigonal,3D,0.0017,0.0072,-3.659519433,-3.722546867,158.0892015,165.962309,9641658.033,9612327.1,0.000613719,0.000643048,2.97E-07,2.97E-07,na,na
JVASP-25373,Tl,194,P6_3/mmc,hexagonal,3D,0.0025,na,0.170066167,0.197143,79.57904557,100.5284889,10389610.23,10386947.3,0.000274682,0.000347988,2.88E-07,2.88E-07,na,na
JVASP-25374,K,63,Cmcm,orthorhombic,3D,0.0035,0.0045,-6.292458933,-6.974178867,183.9231733,208.7132146,3754180.167,3722239.6,0.001945503,0.002246643,7.47E-07,7.47E-07,na,na
JVASP-25375,In,194,P6_3/mmc,hexagonal,3D,0.0055,0.0027,-5.879672133,-5.8312985,572.792621,560.270315,16602877.67,16523188.67,0.001442542,0.001416002,1.72E-07,1.72E-07,na,na
JVASP-25377,Mg,194,P6_3/mmc,hexagonal,3D,0.0022,0.0003,-5.427902333,-5.2828868,341.9269721,322.777763,11762633,11719928,0.001220349,0.001158811,2.45E-07,2.45E-07,na,na
JVASP-25378,Lu,166,R-3m,trigonal,3D,0.0051,na,-11.26378473,-11.40194183,513.2791263,514.8848746,2239918.4,2231626.567,0.009532033,0.009524681,1.25E-06,1.25E-06,na,na
JVASP-25380,O2,12,C2/m,monoclinic,3D,1.1267,na,-416.06827,431.02401,1845.752751,1026.674674,10049.1843,5508.6458,0.992539213,0.591488553,4.751834804,4.751834804,na,na
JVASP-25381,Ho,194,P6_3/mmc,hexagonal,3D,0.0088,0.0009,-15.14466667,-15.50654767,819.3666485,860.9320027,2894697.633,2878191.033,0.011475455,0.012074594,9.90E-07,9.90E-07,na,na
JVASP-25382,Kr,229,Im-3m,cubic,3D,7.2455,10.8869,-118.45076,523.65366,783.0316307,1811.487068,55808.918,6606.1275,0.275165046,1.033709776,0.461435153,0.461435153,na,na
JVASP-25384,Rb,223,Pm-3n,cubic,3D,0.0101,na,-2.6264849,-2.9951864,12.88883818,16.70642944,1868374.6,1862241.2,0.000274931,0.000358203,1.50E-06,1.50E-06,na,na
JVASP-25385,Nd,166,R-3m,trigonal,3D,0.0022,0.0046,-11.3865902,-11.3947997,681.2167345,645.4275504,3182116.067,3171174.4,0.00984249,0.00936864,9.59E-07,9.59E-07,na,na
JVASP-25387,Re,166,R-3m,trigonal,3D,0.002,0.0004,-9.265745767,-9.363352333,990.6326628,1009.705705,7494989.7,7480580.8,0.007469832,0.007654315,3.89E-07,3.89E-07,na,na
JVASP-25388,Rb,194,P6_3/mmc,hexagonal,3D,0.0168,0.0066,-1.007513033,-1.938400217,36.06418541,38.19745449,2827181.767,2821543.7,0.000496368,0.000522645,9.87E-07,9.87E-07,na,na
JVASP-25389,Rb,63,Cmcm,orthorhombic,3D,0.0072,na,-1.977081033,-2.899764237,55.68026283,60.91900882,2696386.6,2688510.633,0.000871288,0.000962004,1.03E-06,1.03E-06,na,na
JVASP-25390,Rb,139,I4/mmm,tetragonal,3D,0.0212,0.0036,-6.2771631,-6.801954767,114.8493607,133.6371872,2906478.467,2881856.9,0.001620714,0.00189947,9.66E-07,9.66E-07,na,na
JVASP-25391,Kr,166,R-3m,trigonal,3D,7.262,10.8234,-103.4674903,466.8552033,703.0133062,920.5665478,67871.875,4095.431633,0.226178424,0.531301661,0.417301437,0.417301437,na,na
JVASP-25392,Kr,194,P6_3/mmc,hexagonal,3D,7.2626,10.8245,-111.3736084,456.34698,988.0541335,759.9283065,35875.82943,3301.410415,0.38506334,0.43655758,30.73032419,30.73032419,na,na
JVASP-25393,Li,194,P6_3/mmc,hexagonal,3D,0.001,0.0087,0.729462867,0.608756667,37.81236069,35.41731088,8346013.8,8349886.633,0.000186495,0.000175192,3.37E-07,3.37E-07,na,na
JVASP-25394,Xe,229,Im-3m,cubic,3D,6.1344,8.5773,-111.72712,492.01027,802.2434656,2124.467117,64267.141,8776.1023,0.270069478,1.187848287,0.488243449,0.488243449,na,na
JVASP-25396,Pr,225,Fm-3m,cubic,3D,0.053,na,0.763724037,0.532584803,2.774461397,1.349928831,4756700.067,4759193.167,2.46E-05,1.20E-05,5.81E-07,5.81E-07,na,na
JVASP-25397,Pr,166,R-3m,trigonal,3D,0.0015,0.003,-9.499903167,-9.426740033,573.2171026,532.0342886,3170422.533,3161817.567,0.008059529,0.007517796,9.61E-07,9.61E-07,na,na
JVASP-25398,Na,194,P6_3/mmc,hexagonal,3D,0.0046,0.0034,-5.736594967,-5.956348233,241.0898165,257.78156,7336103.367,7288840.233,0.001364024,0.001461692,3.86E-07,3.86E-07,na,na
JVASP-25400,Cu,194,P6_3/mmc,hexagonal,3D,0.0028,0.0014,-3.0222396,-3.0757554,152.6624023,156.9709894,15355966,15330827,0.00041593,0.00042828,1.84E-07,1.84E-07,na,na
JVASP-25401,Ag,166,R-3m,trigonal,3D,0.0002,0.0028,-0.90481232,-1.014216773,27.22105043,29.46237075,16275599.67,16263277.33,6.98E-05,7.56E-05,1.73E-07,1.73E-07,na,na
JVASP-25404,C,191,P6/mmm,hexagonal,2D,0.5293,0.5543,21.57794033,-23.01377933,879.2575542,902.7855233,257325.6085,264310.6778,0.0919897,0.091930579,0.033985727,0.033985727,na,na
JVASP-25407,C,194,P6_3/mmc,hexagonal,2D,0.0446,na,-144.12179,164.72877,3075.258097,3078.196873,157855.8399,124048.4368,0.440587482,0.483476683,0.005070913,0.005070913,na,na
JVASP-25408,Al,229,Im-3m,cubic,3D,0.0174,0.0198,-2.3084674,-2.253221,199.9621829,190.2516343,37523244,37473203,0.000217261,0.000206882,7.60E-08,7.60E-08,na,na
JVASP-25409,Br,225,Fm-3m,cubic,3D,0.0072,0.0713,17.557177,17.414364,2200.601093,2172.540064,7138910.7,7163950.2,0.01303077,0.012818712,3.93E-07,3.93E-07,na,na
JVASP-25412,K,123,P4/mmm,tetragonal,3D,0.0421,0.0911,0.244136867,-0.120565133,18.50062947,21.14122274,3081542.467,3081615.467,0.000232412,0.000259162,9.19E-07,9.19E-07,na,na
JVASP-25413,Ge,229,Im-3m,cubic,3D,0.014,0.0081,-1.871588,-1.9383527,110.595601,118.512514,31573109,31542681,0.000143667,0.000154096,8.84E-08,8.84E-08,na,na
JVASP-25414,Cu,229,Im-3m,cubic,3D,0.0259,0.011,-4.3107286,-4.3531122,318.9393849,324.537334,17163537,17126355,0.000760509,0.000776011,1.64E-07,1.64E-07,na,na
JVASP-25415,Si,139,I4/mmm,tetragonal,3D,0.1249,1.1389,-184.76616,205.95733,3060.592573,2115.304473,90669.74333,49893.32567,0.811653637,0.785056209,0.14290109,0.14290109,na,na
JVASP-25416,N2,199,I2_13,cubic,3D,4.3349,4.789,-460.26097,491.01492,2765.250875,2314.770056,13053.478,9601.0444,1.504843462,1.297625267,2.114641291,2.114641291,na,na
JVASP-25418,Y,225,Fm-3m,cubic,3D,0.0222,0.0516,14.046388,13.619188,702.6030573,663.6219515,3561071.667,3577818.567,0.008586585,0.008109872,7.74E-07,7.74E-07,na,na