JID,Composition,Spg.numb.,Spg.symb.,Cryst.,Dimensionality,OPT SCF gap, MBJ gap,n-Seebeck,p-Seebeck,n-powerfact,p-powerfact,n-cond,p-cond,n-ZT,p-ZT,Avg.elec.mass,Avg.hole mass,n-mp-Seeb,p-mp-Seeb
JVASP-25620,Na6PbO5,63,Cmcm,orthorhombic,3D,1.1568,2.7,-86.02715733,378.87853,530.6329453,747.117506,73703.351,5596.268507,0.161818959,0.427507724,0.333644527,0.333644527,-98.10345833,373.3291733
JVASP-25621,LiFe2F6,136,P4_2/mnm,tetragonal,3D,0.3772,0.0046,48.76379967,47.47376333,387.7323438,371.3096156,151520.2067,152598.95,0.097853109,0.092807878,1.53E-05,1.53E-05,na,na
JVASP-25623,K3NaUC3O11,190,P-62c,hexagonal,3D,2.3547,na,-460.75049,470.7455533,0.209135292,25.62394354,0.972198503,114.3692263,0.000125481,0.0153703,21455.69143,21455.69143,-416.9421467,455.5325233
JVASP-25625,KRb2VF6,2,P-1,triclinic,3D,1.6611,1.2814,-54.80614033,-56.972541,17.46706133,18.72127718,5897.5923,5850.873433,0.010451311,0.011201968,0.00027013,0.00027013,68.167501,63.589207
JVASP-25626,BaSi6N8O,44,Imm2,orthorhombic,3D,4.2623,5.3852,-304.17422,402.57053,2061.429385,1146.507714,22610.29733,7206.399067,1.007366532,0.654118143,1.011920753,1.011920753,-337.6119833,410.6737067
JVASP-25627,As2Cl3OF5,14,P2_1/c,monoclinic,0D,3.2731,na,-201.26879,443.8158367,268.9010593,113.6039306,4826.198721,585.8963459,0.155255145,0.067917652,429.9589135,429.9589135,-264.84195,437.42515
JVASP-25629,CaMnF5,15,C2/c,monoclinic,3D,0.7031,0.1142,29.35028,28.58811033,57.03376532,58.39641141,121856.3837,121903.138,0.014384617,0.013729368,5.27E-05,5.27E-05,-14.897783,66.94099533
JVASP-25630,GeClO2F5,20,C222_1,orthorhombic,3D,1.9652,2.2324,-394.53524,511.7795467,73.57284393,65.38756467,514.3715503,313.0429533,0.044063647,0.039158745,161.024088,161.024088,-382.78221,478.58296
JVASP-25631,NaNb2PS10,15,C2/c,monoclinic,3D,1.5714,na,-371.33936,334.4924833,119.094764,102.4422446,891.1362067,920.3352867,0.070979938,0.061102946,38.49318073,38.49318073,na,na
JVASP-25632,KBi(PS3)2,4,P2_1,monoclinic,3D,2.171,2.8559,-370.5218933,295.0652933,166.2939932,492.7606788,1187.278933,5964.559233,0.098707044,0.283954623,18.34948731,18.34948731,-356.10808,322.47511
JVASP-25633,KAu(IO3)4,1,P1,triclinic,2D,2.213,2.4516,-348.0554967,392.33374,460.7353741,166.0814142,3794.222607,1144.288067,0.272159419,0.099299529,9.822147741,9.822147741,-351.4223567,415.3298433
JVASP-25634,Ba2CaUO6,14,P2_1/c,monoclinic,3D,2.3116,2.4414,-409.6666333,435.3944733,2.166302843,869.7334492,12.91863133,4612.390933,0.00129978,0.509894339,1119.585495,1119.585495,-409.3280067,427.4453
JVASP-25636,Li4Al3Ge3IO12,218,P-43n,cubic,3D,3.128,na,-142.22628,442.11005,1096.813855,71.81484144,54221.712,367.41208,0.407729538,0.043068015,0.691360432,0.691360432,-127.26003,441.90554
JVASP-25637,TmSeO3F,14,P2_1/c,monoclinic,3D,4.3491,3.2855,-350.2974833,398.66086,1295.826696,864.4474931,10765.2139,5614.873167,0.705421207,0.499485541,2.745432496,2.745432496,-335.4176133,403.4878167
JVASP-25638,NaZr2CoF11,12,C2/m,monoclinic,3D,1.8131,1.9915,-47.26285067,-51.76035067,204.0821581,233.9715824,84507.71243,83158.6194,0.061263705,0.071114359,0.000521111,0.000521111,na,na
JVASP-25639,Na3ScSi2O7,62,Pnma,orthorhombic,3D,3.8698,na,-113.1663,314.0290833,630.0012641,891.4431983,50643.144,8180.275097,0.233190722,0.48367969,0.452279757,0.452279757,-137.1055633,346.27747
JVASP-25640,Li4Ca(BO3)2,58,Pnnm,orthorhombic,3D,5.1355,na,-107.9659487,486.1746933,629.6036384,283.8583729,52227.56267,1198.95234,0.222608019,0.168702624,0.417051131,0.417051131,-149.3768433,490.2917433
JVASP-25641,K5V3F14,128,P4/mnc,tetragonal,3D,0.0003,na,-10.98195333,-12.56677267,421.7101328,406.3374816,352303.075,355301.8686,0.036853099,0.035939132,0.000514975,0.000514975,na,na
JVASP-25643,K2Be2(SiO3)3,14,P2_1/c,monoclinic,3D,5.0094,na,-105.8754933,409.2280033,653.6714804,219.1073751,58035.99633,1205.41767,0.228632929,0.129754003,0.45477324,0.45477324,-133.38885,423.5813433
JVASP-25645,Sr4RhO6,167,R-3c,trigonal,3D,2.1246,2.1698,40.89134367,38.171072,227.1350688,200.1194059,137645.7033,139009.6067,0.066098149,0.057341744,1.61E-05,1.61E-05,74.102505,71.56200467
JVASP-25646,Ca5As3O12F,2,P-1,triclinic,3D,4.2292,6.0662,-141.45975,431.0639867,892.2893281,92.20058339,44842.62233,501.1542933,0.353038994,0.055171825,0.643025148,0.643025148,-126.2104067,433.81263
JVASP-25647,YbClF,129,P4/nmm,tetragonal,3D,6.0354,7.8853,-143.23232,464.9353167,1079.463285,1064.014323,53558.47067,4788.635233,0.39567834,0.611472841,0.73614196,0.73614196,-146.89553,481.9154633
JVASP-25648,RbFeF4,57,Pbcm,orthorhombic,3D,0.026,na,51.15764067,50.32796867,290.0675233,287.2953412,155688.2933,156397.8207,0.054358877,0.053309233,4.88E-05,4.88E-05,50.41169667,314.8249633
JVASP-25649,NaBi2AuO5,127,P4/mbm,tetragonal,3D,0.9961,1.425,-112.7657733,215.667,671.0986699,863.656217,53505.926,17809.132,0.238695749,0.442609096,0.270691423,0.270691423,-152.0571133,245.5664633
JVASP-25651,Na3Ca2BiO6,70,Fddd,orthorhombic,3D,1.5724,2.5994,-160.86812,427.07522,706.8321909,371.1780188,26703.46967,2055.104567,0.327955093,0.220052087,0.737432409,0.737432409,-127.3593667,366.4356533
JVASP-25653,Tb3CuGeS7,173,P6_3,hexagonal,3D,1.7365,2.3856,-204.3525233,263.1459133,1464.801042,956.8841921,34014.95933,14301.8432,0.60392358,0.518954691,0.709374833,0.709374833,-253.8091233,270.7448233
JVASP-25654,CaCrF6,148,R-3,trigonal,3D,2.1582,1.7366,-36.300258,-37.54577367,101.3126492,107.5968912,70044.153,69787.91567,0.050900796,0.054110261,2.77E-05,2.77E-05,78.553092,75.73017567
JVASP-25655,PCl2OF,14,P2_1/c,monoclinic,0D,5.07,6.3979,-180.8780367,420.54621,634.5308593,181.7806268,19414.64567,1019.85444,0.326109869,0.10844498,0.937149137,0.937149137,-196.8743667,424.5760333
JVASP-25656,Pb2S(O2F)2,15,C2/c,monoclinic,3D,4.0345,5.4948,-357.9338933,283.4192633,1419.00879,1339.391283,12285.17963,25823.96827,0.764696668,0.615786554,3.564849497,3.564849497,-299.06966,301.88074
JVASP-25658,Zn4P6N12O,217,I-43m,cubic,3D,3.05,5.0235,-252.63803,412.00947,1095.692393,1149.399125,17166.873,6771.056933,0.585803972,0.660625,0.998433082,0.998433082,-261.25939,406.15789
JVASP-25660,MoF3,167,R-3c,trigonal,3D,0.0063,0.6893,40.48541433,41.82404767,1029.400537,1074.23524,388038.8333,390172.49,0.054947059,0.057469519,1.01E-05,1.01E-05,-391.8883467,290.40297
JVASP-25661,Rb2AgSbS4,14,P2_1/c,monoclinic,3D,1.3508,na,-140.7491867,348.3040467,497.3231785,502.3882995,24315.13333,4164.338167,0.240541009,0.294976823,0.522384006,0.522384006,-119.4980433,331.8562767
JVASP-25662,K3LuSi2O7,194,P6_3/mmc,hexagonal,3D,3.5257,7.0073,-131.88807,393.3561367,756.6285516,984.4750062,45570.90067,9799.57563,0.292822541,0.528970634,0.537358207,0.537358207,-141.94489,393.4859233
JVASP-25664,Sr2CuF6,64,Cmce,orthorhombic,3D,4.085,6.7599,-2.423737233,-7.1193778,0.031678598,0.240043822,4634.809097,4627.712703,1.90E-05,0.000143811,0.011223152,0.011223152,-367.4411167,364.1608933
JVASP-25665,Sm6Si4S17,2,P-1,triclinic,3D,2.4136,3.2066,-319.2936433,313.6291267,215.6177389,191.9326934,2118.584667,1932.29032,0.127856606,0.113760724,7.837632069,7.837632069,-314.5935433,339.0050967
JVASP-25666,SmAsS,62,Pnma,orthorhombic,3D,0.0318,na,-178.9058167,145.28312,8276.91078,1877.608795,200221.683,115585.9543,1.100053035,0.33776305,0.001708146,0.001708146,-181.28636,175.0729633
JVASP-25667,K3ScSi2O7,194,P6_3/mmc,hexagonal,3D,3.5473,5.1922,-137.2252233,387.7063167,787.276495,1002.434692,44125.10767,10604.84318,0.311874879,0.534634975,0.611696909,0.611696909,-149.5973133,391.30897
JVASP-25668,TlInAs2O7,2,P-1,triclinic,3D,3.0856,3.7521,-257.8603233,384.8077567,982.5670618,102.030857,14382.77857,696.7113967,0.513621885,0.060995072,1.981469026,1.981469026,-275.0725367,385.5207767
JVASP-25687,FeF2,136,P4_2/mnm,tetragonal,3D,0.0061,na,-0.650543467,-0.079940667,41.44180601,49.42199612,304658.4867,305121.9033,0.002515386,0.002818207,1.77E-05,1.77E-05,-28.77842433,-28.637239
JVASP-25690,NpIO,129,P4/nmm,tetragonal,2D,0.0047,na,-18.93708553,-19.70325607,165.1019737,176.685602,198679.6977,197511.9327,0.024392615,0.026229694,6.54E-05,6.54E-05,-26.88473233,-27.39208833
JVASP-25692,RbPS3,71,Immm,orthorhombic,3D,1.7006,na,-283.95237,286.40571,1744.998818,1780.09508,21998.93967,21546.54433,0.874432414,0.834803817,1.453842014,1.453842014,-313.42155,305.4494567
JVASP-25696,Nd3SiCuS7,173,P6_3,hexagonal,3D,1.6888,na,-218.24757,301.1910833,1349.770978,652.4126906,26638.48633,7623.042433,0.629990344,0.375793193,1.017872508,1.017872508,-201.4626333,315.52139
JVASP-25704,NbVF6,148,R-3,trigonal,3D,0.0019,na,-17.046806,-18.937585,43.52647816,53.11663565,148679.5267,147975.9467,0.010719239,0.013185127,1.66E-05,1.66E-05,42.497187,42.12599167
JVASP-25722,K2Sn(AuS2)2,2,P-1,triclinic,3D,1.5016,2.558,-139.6636933,212.6156833,722.1726592,770.4997515,34852.885,15911.43083,0.290282334,0.39222016,0.549791989,0.549791989,-135.3087833,237.2776833
JVASP-25743,KVF3,221,Pm-3m,cubic,3D,0.8124,0.0269,-336.69579,399.31669,1704.575827,1402.55206,15036.299,8795.9766,0.901182069,0.7832659,1.795839632,1.795839632,na,na
JVASP-25772,Na2Ca2(CO3)3,38,Amm2,orthorhombic,3D,4.8822,na,-169.3105767,318.6014733,757.5307229,828.1486175,26475.03433,7306.540267,0.351689125,0.449091335,0.723629571,0.723629571,-172.6393067,328.2702067
JVASP-25773,K2MnF6,225,Fm-3m,cubic,3D,2.4217,1.6331,-474.6562767,438.1583,174.1259067,290.7537996,772.8673033,1514.4792,0.103995671,0.173676708,18.59161951,18.59161951,na,na
JVASP-25774,Li4Ga3Si3BrO12,218,P-43n,cubic,3D,4.0418,na,-103.92979,438.64831,602.5947945,45.12433414,55788.576,234.51892,0.213570726,0.02706985,0.380010819,0.380010819,-117.66989,448.81003
JVASP-25775,Cd2BiAsO6,36,Cmc2_1,orthorhombic,3D,1.9695,3.6242,-160.8612333,395.8136833,960.8747376,452.3038302,35412.46333,2592.843033,0.389823117,0.259859519,0.743694381,0.743694381,-196.7719233,432.3272367
JVASP-25776,Li2AlBO4,14,P2_1/c,monoclinic,3D,5.2161,2.4792,-124.79055,446.3986367,815.8260686,333.0842288,54288.832,1840.54078,0.287031823,0.198321434,0.600588913,0.600588913,-145.5597967,443.59328
JVASP-25777,Y2SiCO7,2,P-1,triclinic,3D,4.8925,6.1545,-348.5698133,387.2986767,672.6349812,386.3828924,5612.402133,2634.468667,0.39068445,0.228446136,3.895238443,3.895238443,-368.75246,385.81206
JVASP-25779,TlBiP2S7,14,P2_1/c,monoclinic,3D,2.2064,2.7829,-327.9670467,247.5466667,284.9752797,347.9273452,2936.520803,5936.507433,0.168600264,0.201355497,10.03142274,10.03142274,-287.6991733,259.74337
JVASP-25780,Sn(SeO3)2,205,Pa3,cubic,3D,2.8819,na,-132.3045,473.70587,1066.46714,293.1761083,60925.38,1306.5049,0.374414511,0.174870711,0.639739508,0.639739508,-97.568003,455.75963
JVASP-25781,Ba3LuIr2O9,194,P6_3/mmc,hexagonal,3D,0.0128,0.0301,-0.771198367,-4.791199967,6.357529291,7.676220071,219402.2667,219039.1567,0.001213793,0.001825401,1.15E-05,1.15E-05,4.880475519,2.106143967
JVASP-25783,Na2Ca3Si3O10,15,C2/c,monoclinic,3D,4.6798,7.2129,-104.9538893,448.1348933,689.7673878,86.29720218,63833.56033,429.24131,0.226817053,0.051511965,0.423260568,0.423260568,-120.9318933,459.35181
JVASP-25784,KZrF5,2,P-1,triclinic,3D,5.8202,6.19,-351.7541533,480.8465,68.32626146,39.82532943,566.0511833,188.5874673,0.040912469,0.02385773,55.01030102,55.01030102,-381.8901933,494.6476067
JVASP-25786,NaSrBO3,14,P2_1/c,monoclinic,3D,4.1925,6.4518,-128.3516667,385.62493,756.2115197,824.5638296,45302.70367,5949.419127,0.283289237,0.474672783,0.579769963,0.579769963,-131.2300033,392.75145
JVASP-25787,Na2PHO3,14,P2_1/c,monoclinic,3D,5.9937,8.7027,-265.5232133,436.2549067,1030.865385,142.1291003,15059.79134,746.80436,0.526368757,0.08488801,5.212382976,5.212382976,-272.8910233,444.4720233
JVASP-25788,AsS(ClF2)3,19,P2_12_12_1,orthorhombic,0D,3.7058,na,-398.1296367,402.9184433,86.5102894,81.28530254,560.94495,492.5710033,0.051860945,0.04870071,40.96113294,40.96113294,-323.6206067,437.52917
JVASP-25789,Na2ZrSiO5,14,P2_1/c,monoclinic,3D,4.2019,na,-225.97709,326.3033733,566.7037698,1719.950237,7549.9071,17545.48244,0.297000029,0.788276078,1.4239176,1.4239176,-213.9310533,462.7491933
JVASP-25790,Ga2BiS4,126,P4/nnc,tetragonal,3D,2.539,3.2483,-382.83648,356.2593067,762.7028125,1023.28418,5194.214067,8041.354833,0.445598119,0.585646895,3.920120313,3.920120313,-364.2385967,353.2471067
JVASP-25791,Tl3Ga9S13O2,174,P-6,hexagonal,3D,2.2532,3.1899,-267.4627367,334.8827867,1648.400534,324.4006482,20989.8078,2928.472167,0.698399685,0.190278275,3.288818374,3.288818374,-264.3291033,335.2174433
JVASP-25792,K2Ti(SiO3)3,146,R3,trigonal,3D,3.3857,3.569,-442.8092167,375.88851,34.38801153,277.7605153,175.84276,1974.531133,0.020626676,0.165321133,78.20531147,78.20531147,-438.84272,380.9
JVASP-25793,Ba5Re3BrO15,185,P6_3cm,hexagonal,3D,2.5812,na,-410.2150733,441.0745233,45.42162548,87.20393389,268.3753367,453.5873933,0.027247004,0.052162232,53.3428327,53.3428327,-411.9713733,431.8531467
JVASP-25794,Re2SCl12,11,P2_1/m,monoclinic,0D,0.0227,1.0585,-354.8053433,332.3269133,84.83145224,455.3494396,578.9361667,4099.149487,0.050552865,0.265327102,12.06029656,12.06029656,-288.71062,314.44049
JVASP-25797,KNaThF6,147,P-3,trigonal,3D,7.2045,5.9201,-386.0300567,479.80429,245.2390756,208.3715275,1745.216694,934.4136767,0.145759727,0.124482993,75.00511873,75.00511873,-379.2415433,485.3871033
JVASP-25798,TlInSiS4,62,Pnma,orthorhombic,3D,2.4651,na,-217.11245,325.1983367,1206.440837,551.4650152,27763.61037,6129.313067,0.560415754,0.320478189,1.466684227,1.466684227,-153.60725,355.6658133
JVASP-25799,CaCrF5,15,C2/c,monoclinic,3D,0.7662,0.0565,-0.905482333,-1.695135333,424.6542389,447.5150284,201159.2273,201926.3237,0.025072255,0.026938622,4.79E-05,4.79E-05,-274.36625,415.7887633
JVASP-25801,Ba5As3ClO12,176,P6_3/m,hexagonal,3D,4.2725,na,-119.7139633,425.68986,726.0003844,233.541321,50336.99267,1345.626767,0.273369801,0.139058428,0.521681222,0.521681222,-120.1710967,427.1554067
JVASP-25802,Y3CuGeS7,173,P6_3,hexagonal,3D,1.7223,2.2938,-201.43491,264.7614933,1429.274665,926.2279841,33977.00867,13597.23893,0.58620144,0.506723831,0.692142086,0.692142086,-255.2202733,275.78836
JVASP-25806,K5V3O10,92,P4_12_12,tetragonal,3D,2.9015,na,-346.9714167,390.0928633,12.24573063,44.6251423,101.0505796,288.9778468,0.007345974,0.026755775,58201.12806,58201.12806,-353.57012,406.53162
JVASP-25807,K2Si3SnO9,146,R3,trigonal,3D,4.0797,6.0262,-141.8628067,398.3017333,984.9825531,305.026394,48957.735,1948.036867,0.37892993,0.181317122,0.686979689,0.686979689,-124.4221733,406.4284533
JVASP-25808,AgHg2PO4,55,Pbam,orthorhombic,3D,1.2515,na,-109.4161183,158.1095533,823.8064893,856.3206294,72033.74167,34987.68567,0.264380903,0.373395971,0.55098348,0.55098348,-105.7556693,162.2870733
JVASP-25812,CoPtF6,148,R-3,trigonal,3D,0.0034,0.0001,-103.4467677,-104.8587533,5533.882184,5589.074385,515611.0733,506948.24,0.496628365,0.511485275,5.23E-06,5.23E-06,na,na
JVASP-25813,LiNdGeO4,60,Pbcn,orthorhombic,3D,4.2476,na,-108.6368627,353.9591867,626.6103226,662.1894307,50631.63967,5718.122867,0.219074753,0.381516742,0.420109166,0.420109166,-115.1193367,378.7698167
JVASP-25815,Sm3Si2Cl5O6,12,C2/m,monoclinic,3D,4.6157,6.3862,-253.3405833,341.4234667,1360.372916,254.8783632,18066.38183,2299.358567,0.630646594,0.151261819,6.035106719,6.035106719,-270.8877233,376.19665
JVASP-25817,RuCl(OF3)2,13,P2/c,monoclinic,2D,0.2518,0.4843,3.934402533,3.119454633,47.65408887,46.1660182,93078.983,93206.57367,0.014382738,0.014011039,3.35E-05,3.35E-05,-380.1403067,415.6726567
JVASP-25821,Ba3Bi(ClO)3,62,Pnma,orthorhombic,3D,3.7573,na,-336.2948533,433.0449433,388.6645951,208.1758115,3382.46554,1055.94297,0.225653253,0.123889841,22.50713499,22.50713499,-383.1293633,426.2868467
JVASP-25823,Ag2HgSI2,36,Cmc2_1,orthorhombic,3D,1.1693,2.2704,-75.83542067,297.9315267,463.0799667,1143.024748,79883.88733,13229.18733,0.134974976,0.599305505,0.272069428,0.272069428,-79.188544,330.958
JVASP-25825,FeF3,167,R-3c,trigonal,3D,0.0234,0.0053,-49.43948933,166.8556333,68.31387612,934.0791594,27448.78467,33637.809,0.012107577,0.18749581,0.001811934,0.001811934,-300.10848,312.8906933
JVASP-25831,KAs4ClO6,191,P6/mmm,hexagonal,3D,3.365,na,-178.9101333,367.99165,1385.651217,1706.097819,43135.825,12850.73337,0.463931286,0.94023231,0.579361324,0.579361324,-114.2061833,357.43348
JVASP-25841,Na3BeAl(SiO4)2,18,P2_12_12,orthorhombic,3D,4.5814,na,-95.65865467,427.92972,587.1642918,398.1112095,64158.34933,2880.198002,0.192989309,0.235824079,0.392408157,0.392408157,-119.5539933,475.8165833
JVASP-25843,KRb2CrF6,225,Fm-3m,cubic,3D,2.3951,1.2104,-369.35477,448.23871,286.1528729,53.89505364,2097.5421,268.2441067,0.170789055,0.032327439,7.161389468,7.161389468,-346.85175,442.07769
JVASP-25844,Rb2Al2Sb2O7,164,P-3m1,trigonal,3D,3.7176,4.7342,-177.4437033,427.4009367,1620.696418,393.5856775,46410.73,2268.417167,0.59124641,0.233615878,0.583488185,0.583488185,-225.6574267,436.12826
JVASP-25845,Ba2AlInO5,194,P6_3/mmc,hexagonal,3D,1.9218,na,-114.1629813,404.4720833,654.5064367,1212.310663,47599.34067,7787.694348,0.243344965,0.666453095,0.385488946,0.385488946,-82.48537267,474.1852733
JVASP-25848,Ba3NaBiO6,167,R-3c,trigonal,3D,1.7554,na,-160.9269633,370.02808,757.1791125,588.3191519,29207.94933,4289.828167,0.345547041,0.343959063,0.765015968,0.765015968,na,na
JVASP-25859,CdHg2SeO6,2,P-1,triclinic,3D,1.0391,na,-103.17479,267.9437867,714.0855216,796.5139711,66626.98833,10675.2266,0.228515306,0.436142949,0.417286826,0.417286826,-106.19123,304.23868
JVASP-25868,Ba3Bi2TeO9,165,P-3c1,trigonal,3D,2.1692,na,-266.8269233,304.2079767,2094.470303,1283.598538,28092.78763,13620.29267,1.030419795,0.711805175,0.594824731,0.594824731,-258.9598167,300.5681533
JVASP-25871,Rb2NiF6,225,Fm-3m,cubic,3D,1.6055,1.1043,-403.7800167,541.02016,640.166675,132.7593926,3926.480267,453.5637733,0.37803752,0.079561007,4.593502457,4.593502457,-410.45281,535.51147
JVASP-25872,AlSCl3O2,2,P-1,triclinic,0D,3.816,5.1515,-357.5379,431.6801567,472.59818,191.1897308,3534.781667,1046.246567,0.275313569,0.114068055,18.14894352,18.14894352,-378.7679633,417.3266467
JVASP-25874,NdVO3,62,Pnma,orthorhombic,3D,0.0027,na,-28.28970833,-28.83299067,194.3242704,200.1447798,244603.1567,242446.1867,0.028104597,0.028830891,1.16E-05,1.16E-05,31.09441407,30.403226
JVASP-25875,NbCl3O,113,P-42_1m,tetragonal,3D,2.6638,3.1564,-477.7590733,422.3321467,230.1328425,450.1449234,1008.70072,2497.729433,0.136423225,0.266223448,26.18114392,26.18114392,-417.7077267,476.2191533
JVASP-25876,RbVF3,221,Pm-3m,cubic,3D,0.8443,0.0035,-336.67291,393.57719,1662.503101,1387.085816,14667.163,8954.5443,0.881690617,0.77126955,1.90416838,1.90416838,na,na
JVASP-25879,AgBi(PS3)2,2,P-1,triclinic,1D,1.1085,1.5146,-105.6205,318.8828867,599.4613971,668.2556622,51771.211,9251.54369,0.205627619,0.367905937,0.384557345,0.384557345,-146.95404,286.7287467
JVASP-25880,KNaSmNbO5,129,P4/nmm,tetragonal,3D,3.5497,4.378,-345.1444967,420.26377,806.3621107,924.8962003,6852.195333,13873.24396,0.453580091,0.469898053,5.0917452,5.0917452,-337.52925,437.8842467
JVASP-25883,Ba5Ru2Cl2O9,194,P6_3/mmc,hexagonal,3D,0.0024,na,-336.1717433,273.6952833,390.1859063,176.7428595,3508.237305,2547.037806,0.217748106,0.098801257,479.4780288,479.4780288,-5.3616573,-7.224565367
JVASP-25884,PrB2ClO4,2,P-1,triclinic,3D,5.1055,6.9913,-288.42318,327.34081,742.0397909,1258.994356,7755.599267,11381.51312,0.398086878,0.643343444,3.486178253,3.486178253,-342.4463833,336.37509
JVASP-25886,K2NaMoF6,225,Fm-3m,cubic,3D,1.8693,2.5738,-436.33179,435.73367,174.041906,217.2542267,914.15559,1144.263367,0.104278046,0.130063837,16.0305922,16.0305922,na,na
JVASP-25887,RbNiF3,194,P6_3/mmc,hexagonal,3D,0.6558,na,-386.58434,438.3369567,201.5061157,184.0630901,1210.873873,955.3192467,0.119877478,0.109496978,16.81834436,16.81834436,na,na
JVASP-25888,Ta2SnO6,15,C2/c,monoclinic,3D,2.3934,2.9215,-359.6999333,300.06531,899.9866521,1226.045416,6682.854033,13899.88227,0.512515905,0.612090504,6.03948549,6.03948549,-366.7636033,283.35577
JVASP-25889,NClOF4,108,I4cm,tetragonal,0D,1.9217,2.9933,-413.2665233,461.48767,1331.686694,465.7741952,7173.488,2264.019667,0.75296404,0.277479251,3.302686138,3.302686138,-426.9860467,456.4780733