JID,Composition,Spg.numb.,Spg.symb.,Cryst.,Dimensionality,OPT SCF gap, MBJ gap,n-Seebeck,p-Seebeck,n-powerfact,p-powerfact,n-cond,p-cond,n-ZT,p-ZT,Avg.elec.mass,Avg.hole mass,n-mp-Seeb,p-mp-Seeb
JVASP-7834,ThGe2,63,Cmcm,orthorhombic,3D,0.0076,0.0054,-4.239405567,-0.429938953,298.1545461,359.7598136,1381526.803,1383236.44,0.005777992,0.006466265,2.74E-06,2.74E-06,na,na
JVASP-7835,HoSbPt,216,F-43m,cubic,3D,0.1768,0.3979,-81.405262,184.05878,644.4889313,2772.469845,97254.67933,81837.76367,0.128045581,0.735231114,0.000391124,0.000391124,na,na
JVASP-7838,AlAuO2,194,P6_3/mmc,hexagonal,3D,0.7821,1.6914,-147.04648,346.49026,1505.911537,4574.771597,65683.27533,36575.42867,0.379137904,1.85470514,0.905272591,0.905272591,-153.6766533,399.9945967
JVASP-7839,CrInCo2,225,Fm-3m,cubic,3D,0.004,0.001,-4.517759967,-4.617670767,21.93984045,22.88640932,1074947.267,1073326.2,0.000802729,0.000834614,2.66E-06,2.66E-06,na,na
JVASP-7840,PuRh3,221,Pm-3m,cubic,3D,0.0018,na,-4.0921885,-4.1007789,40.07088648,40.22514048,2392862.2,2392020.3,0.00067095,0.000673253,1.16E-06,1.16E-06,na,na
JVASP-7841,La3Sn,221,Pm-3m,cubic,3D,0.0044,na,2.7262385,2.4348769,25.50525413,20.36791213,3431641.9,3435520.1,0.000315162,0.000251857,8.06E-07,8.06E-07,na,na
JVASP-7842,AlCr2,139,I4/mmm,tetragonal,3D,0.0059,0.0047,-3.455612333,-3.865240033,698.1809524,715.4441853,3692073.9,3688385.4,0.00869464,0.00886664,7.41E-07,7.41E-07,na,na
JVASP-7843,C,166,R-3m,trigonal,2D,0.0985,0.5114,-182.9583967,182.4962767,5346.687198,5421.344683,139365.489,151709.5537,1.010556103,1.007699789,0.209998861,0.209998861,-181.8950367,184.5850933
JVASP-7844,AlN,216,F-43m,cubic,3D,3.5452,4.8012,-174.26904,430.86488,2085.277186,3677.488791,68663.08533,19809.30167,0.68501808,1.854987243,0.367348283,0.367348283,-171.90871,419.21608
JVASP-7845,BaC2,139,I4/mmm,tetragonal,3D,1.7911,3.0936,-249.4637167,454.6243,2639.888679,3569.655938,43428.459,17031.49347,1.067233167,1.693009106,0.820854222,0.820854222,-190.21001,458.1882833
JVASP-7846,TlSe,140,I4/mcm,tetragonal,3D,0.0486,0.7436,-136.15413,63.43646767,1988.718061,302.9689461,105232.5533,56051.46267,0.41197948,0.07400833,0.00012809,0.00012809,-154.7024767,141.5136733
JVASP-7848,SrVO3,221,Pm-3m,cubic,3D,0.0011,na,-10.762451,-10.908421,391.2336224,399.9178766,3377643.4,3360833.8,0.004730824,0.004859949,8.31E-07,8.31E-07,na,na
JVASP-7849,LaMnSbO,129,P4/nmm,tetragonal,3D,0.0011,0.0375,-3.818903,-4.419844733,84.70082947,78.62215342,1346883.413,1349482.087,0.007486881,0.00768712,6.46E-06,6.46E-06,15.75918667,14.73483133
JVASP-7850,BaEr2CoO5,71,Immm,orthorhombic,3D,0.0027,na,-1.2605986,-1.1868125,320.060485,283.7692445,730021.4749,743606.2851,0.006801429,0.005849657,0.000789315,0.000789315,na,na
JVASP-7851,SrMoO3,221,Pm-3m,cubic,3D,0.0043,na,-2.6554802,-2.7476363,42.56206689,45.50882147,6035824.1,6028053.5,0.00028898,0.000309299,4.65E-07,4.65E-07,-2.3700504,-2.4336929
JVASP-7852,Yb2BaNiO5,71,Immm,orthorhombic,3D,0.0017,na,7.150156767,7.046882533,1089.97372,1108.124694,22226567,22219097.33,0.004013098,0.004244755,2.27E-07,2.27E-07,na,na
JVASP-7853,BaTm2NiO5,71,Immm,orthorhombic,3D,0.0033,na,-37.93885233,-41.17045367,640.8223586,657.7076827,557141.6617,562900.282,0.098081335,0.104801468,2.48E-05,2.48E-05,-31.63504033,-34.741568
JVASP-7854,LiMnO2,59,Pmmn,orthorhombic,3D,0.0009,na,-123.9697,-12.0013,1726.844081,3144.546873,22582.91433,26551.17447,0.608371033,0.815275212,0.005194553,0.005194553,-293.7467733,262.1659633
JVASP-7855,SnS,225,Fm-3m,cubic,3D,0.0928,0.4947,-247.39805,198.10522,5210.112648,3526.199264,85124.499,89849.365,1.633475283,0.934124906,0.025445943,0.025445943,-117.1009,99.956002
JVASP-7860,SnTe,225,Fm-3m,cubic,3D,0.0333,0.1617,-252.0683,158.64966,7448.19817,4744.413096,117223.52,188496.8967,1.280217306,0.606582895,0.013908111,0.013908111,-220.34972,148.32412
JVASP-7861,LaCrO3,221,Pm-3m,cubic,3D,0.0094,na,-217.92138,31.11381,2525.617418,26.3971737,53182.394,27267.859,0.611463177,0.005098457,0.00093911,0.00093911,na,na
JVASP-7862,Sr2CrO4,139,I4/mmm,tetragonal,3D,0.0008,na,37.49011,38.26059733,390.7364147,361.8947702,819223.34,826740.99,0.017098009,0.016385496,0.000302709,0.000302709,10.66458933,9.814161667
JVASP-7863,KCoO2,122,I-42d,tetragonal,3D,0.0067,0.0002,-9.2742938,-8.455798233,31.15013244,26.30027613,322145.68,321425.5367,0.00260382,0.002185215,1.06E-05,1.06E-05,na,na
JVASP-7864,AlPt3,221,Pm-3m,cubic,3D,0.0056,0.0064,33.220384,32.721695,4571.722762,4477.710139,4142577,4182003.5,0.048160726,0.046706139,6.59E-07,6.59E-07,32.550643,32.03114
JVASP-7866,Ba2N,166,R-3m,trigonal,3D,0.0271,na,-5.21806175,-4.992920463,55.12209269,58.15805869,898312.9167,893688.02,0.001748403,0.001871046,6.32E-06,6.32E-06,na,na
JVASP-7867,BaNiO2,63,Cmcm,orthorhombic,3D,0.0187,0.0037,-222.022308,-38.95749333,711.0215275,1844.211158,10530.2206,18049.65177,0.365366667,0.560266712,0.031585847,0.031585847,-390.9340333,220.9602833
JVASP-7868,FeAgO2,194,P6_3/mmc,hexagonal,3D,0.0051,na,-10.60173229,-10.79096081,282.8961743,295.9256628,632632.8133,631060.87,0.01726348,0.018129964,4.70E-06,4.70E-06,43.04747533,42.563603
JVASP-7869,Sr2MnO4,139,I4/mmm,tetragonal,3D,0.3544,0.0094,125.6743247,124.7362563,67.05754304,84.93928523,215706.9313,213122.3743,0.034374036,0.047554409,0.001316577,0.001316577,na,na
JVASP-7870,MnO,225,Fm-3m,cubic,3D,0.029,0.0037,17.125986,16.984149,1107.419135,1094.53094,3775729.333,3794376.833,0.012028092,0.011841988,7.46E-07,7.46E-07,22.886596,22.804582
JVASP-7871,NiO,225,Fm-3m,cubic,3D,0.0071,0.0122,-0.46735556,-0.51121763,1.695269429,2.028293786,7761468.567,7761027.367,9.08E-06,1.09E-05,3.62E-07,3.62E-07,-1.9125997,-1.9452405
JVASP-7873,Na5CoSO2,123,P4/mmm,tetragonal,3D,0.7271,1.5584,-391.2991633,431.8605067,104.2053122,321.938451,687.0184533,2196.363821,0.062328923,0.19025012,19.92251293,19.92251293,-386.61566,240.7312067
JVASP-7874,LaVO3,221,Pm-3m,cubic,3D,0.0046,na,7.6803134,7.5199013,128.0207998,122.9572137,2170314.4,2174351.4,0.002422372,0.002326577,1.28E-06,1.28E-06,-3.3823766,-3.4948571
JVASP-7875,NdCrO3,221,Pm-3m,cubic,3D,0.015,na,-171.20512,7.7229131,1699.780915,2.206053087,57990.847,36987.388,0.344162857,0.00039373,0.000292092,0.000292092,na,na
JVASP-7876,BaEr2NiO5,71,Immm,orthorhombic,3D,0.0005,na,-40.18393733,-43.56151267,627.4490223,640.4607653,556657.0997,562184.309,0.103391205,0.110046163,2.53E-05,2.53E-05,29.96077233,28.23246467
JVASP-7877,BaNd2CoO5,71,Immm,orthorhombic,3D,0.0003,na,-4.385221367,-6.880195833,303.1941941,273.2909843,594286.4263,605325.3754,0.011171507,0.011113024,0.000391662,0.000391662,na,na
JVASP-7878,CoO,186,P6_3mc,hexagonal,3D,0.0029,0.004,-28.84103697,-28.29525087,1341.143601,1292.215081,1122739.767,1117792.767,0.035568147,0.034175534,2.87E-06,2.87E-06,-14.39899987,-13.22627157
JVASP-7879,BaDy2CoO5,71,Immm,orthorhombic,3D,0.0003,na,-0.7328523,-1.218120767,339.1397157,303.8795724,700887.5486,714553.6299,0.007694728,0.006718645,0.000722749,0.000722749,na,na
JVASP-7880,BaHo2NiO5,71,Immm,orthorhombic,3D,0.0013,na,-42.06096533,-45.61944367,620.1481607,630.1147453,555050.5937,560380.454,0.108469719,0.115226844,2.56E-05,2.56E-05,-35.22199133,-38.650049
JVASP-7882,VO,225,Fm-3m,cubic,3D,0.0008,0.0023,2.849998967,2.855817767,63.70354111,63.98123898,7842854.7,7844976.8,0.000327761,0.000329089,3.59E-07,3.59E-07,na,na
JVASP-7884,Nd2NiO4,139,I4/mmm,tetragonal,3D,0.003,na,4.244712857,4.164469167,7.708712357,7.406449715,999943.8367,1000179.197,0.001676685,0.001612881,9.41E-06,9.41E-06,20.81507513,20.62489193
JVASP-7885,NdVO3,221,Pm-3m,cubic,3D,0.0038,na,-0.61816865,-0.77649186,1.099695042,1.735024263,2877784.8,2877608.7,1.59E-05,2.51E-05,9.67E-07,9.67E-07,-8.2724118,-8.3624679
JVASP-7886,SmCrO3,221,Pm-3m,cubic,3D,0.0181,0.0021,-141.50146,-11.066991,1332.584141,5.744510062,66553.791,46902.272,0.245272523,0.000948433,0.000190152,0.000190152,-129.69702,-57.547988
JVASP-7888,Li2MnO2,164,P-3m1,trigonal,3D,1.1303,na,-342.7798633,495.7445433,1950.964845,1083.171038,14392.00565,4407.135667,0.987442847,0.634324711,22.76910573,22.76910573,na,na
JVASP-7890,Tb2BaNiO5,71,Immm,orthorhombic,3D,0.0034,na,40.53013437,38.7602793,708.314674,647.751116,620083.69,620989.6233,0.155749113,0.1429898,9.95E-06,9.95E-06,-38.43365567,-42.11275233
JVASP-7891,Yb(FeO2)2,166,R-3m,trigonal,3D,0.0013,na,-3.926635667,-4.128781667,267.9406962,251.0589502,658222.12,659872.0133,0.02371241,0.022212837,7.08E-06,7.08E-06,1.120118,0.735462333
JVASP-7892,BaY2NiO5,71,Immm,orthorhombic,3D,0.0011,na,-43.34504733,-47.004632,629.4576449,627.0283333,513575.5603,519774.0263,0.107835242,0.113154737,2.93E-05,2.93E-05,32.85158967,31.04825033
JVASP-7895,LiMoO2,166,R-3m,trigonal,3D,0.0191,0.0003,-3.1370788,-3.397143333,996.2950114,1046.574038,7079564.733,7032327.8,0.005817569,0.006007954,6.90E-06,6.90E-06,na,na
JVASP-7896,Cu3N,221,Pm-3m,cubic,3D,0.1404,0.339,-169.84662,289.1498,3224.494808,2293.452136,111775.82,27431.142,0.8320082,1.007677993,0.046650197,0.046650197,-166.21091,215.03186
JVASP-7897,PrCrO3,221,Pm-3m,cubic,3D,0.0184,0.0004,-189.46674,20.165575,1977.84407,13.29001223,55096.763,32681.664,0.425672935,0.002470968,0.000390677,0.000390677,na,na
JVASP-7900,VAg3O4,121,I-42m,tetragonal,3D,0.4998,2.1626,-167.7565267,342.9564867,1081.280986,1495.269978,38406.738,12103.19507,0.449565162,0.812725708,0.81222993,0.81222993,-158.3450067,370.9812
JVASP-7901,LiFeO2,166,R-3m,trigonal,3D,0.3492,0.001,-6.016130933,-4.478866467,34.93505247,37.94905624,142905.6833,142773.582,0.008438816,0.008486527,4.19E-05,4.19E-05,na,na
JVASP-7902,SrS2,140,I4/mcm,tetragonal,3D,1.5845,2.7189,-296.8514033,167.7884167,3878.554261,1293.754653,44372.451,42001.40767,1.423013204,0.464063118,0.98952458,0.98952458,-292.4606333,161.30902
JVASP-7905,Sc3InB,221,Pm-3m,cubic,3D,0.0509,0.0158,29.541853,29.227745,1089.134874,1074.630964,1247975.9,1257965.5,0.035451778,0.034628992,2.17E-06,2.17E-06,na,na
JVASP-7907,La2CuO4,139,I4/mmm,tetragonal,3D,0.2458,na,37.19149101,35.30068847,179.1019859,198.6492839,1225156.02,1212951.89,0.042093107,0.044790974,7.33E-05,7.33E-05,37.59301107,35.6687536
JVASP-7912,Sr(GeRu)2,139,I4/mmm,tetragonal,3D,0.0002,na,-17.6364404,-17.27252713,1475.51197,1459.239072,1683830.667,1668589.867,0.03915036,0.040027951,1.74E-06,1.74E-06,na,na
JVASP-7913,Ca(GeRu)2,139,I4/mmm,tetragonal,3D,0.0041,na,-24.07307233,-24.60696957,1646.930561,1652.71539,1831355.867,1817811.633,0.06510295,0.067955576,1.81E-06,1.81E-06,na,na
JVASP-7915,In2Co3S2,166,R-3m,trigonal,3D,0.0111,0.0141,-12.204715,-13.46940567,140.7403703,171.0257236,924768.1233,921344.0667,0.00757921,0.009244613,2.83E-06,2.83E-06,na,na
JVASP-7916,U(GePt)2,139,I4/mmm,tetragonal,3D,0.0029,0.0011,11.33578267,11.41135867,221.2406065,224.3475934,1709847.6,1713144.467,0.004983093,0.005052861,1.71E-06,1.71E-06,na,na
JVASP-7917,Co3(SnS)2,166,R-3m,trigonal,3D,0.0216,0.0277,-6.4802287,-5.5126467,114.8656879,119.9204447,324013.86,324537.4267,0.010654915,0.011165965,9.57E-06,9.57E-06,na,na
JVASP-7918,USnRu,189,P-62m,hexagonal,3D,0.0045,0.0007,13.39179807,13.12837343,40.09754088,37.74546071,200996.24,201473.18,0.00804687,0.007542084,1.42E-05,1.42E-05,34.21598267,34.55606667
JVASP-7919,TmPb3,221,Pm-3m,cubic,3D,0.0007,na,14.125188,13.257298,1598.315391,1422.915375,8010765.3,8095972.7,0.008640994,0.00772563,3.39E-07,3.39E-07,na,na
JVASP-7921,Tm3InN,221,Pm-3m,cubic,3D,0.0061,0.0303,-20.711829,-21.104387,925.9497687,946.3600273,2158492.4,2124765,0.017484837,0.01813727,1.32E-06,1.32E-06,na,na
JVASP-7922,Ba(MnP)2,139,I4/mmm,tetragonal,3D,0.0071,0.0056,-8.098235133,-7.958913867,80.63208218,75.87699537,1586029.767,1582948.913,0.004410907,0.004112582,2.62E-06,2.62E-06,na,na
JVASP-7923,ZnO,216,F-43m,cubic,3D,0.8717,2.3631,-65.056402,374.6856,432.6786778,2219.865637,102231.66,15812.214,0.108473135,1.118803891,0.222641837,0.222641837,-53.52064,370.66871
JVASP-7925,FeTe2,58,Pnnm,orthorhombic,3D,0.0398,0.0411,-92.58172367,0.18287,883.6358417,127.2182559,78737.156,73974.14567,0.123805825,0.019321597,0.000100741,0.000100741,-134.5108613,99.814905
JVASP-7926,ThSnPt,216,F-43m,cubic,3D,0.1002,0.6815,-273.90479,368.76786,4495.82901,5157.546401,59925.34333,37925.998,1.531830222,2.280642496,0.259707239,0.259707239,-295.57138,372.63256
JVASP-7928,Dy(CrSi)2,139,I4/mmm,tetragonal,3D,0.0023,0.0025,-15.5025718,-15.8201629,966.3746458,1003.892206,1821871.967,1815097.833,0.026119414,0.027413913,1.54E-06,1.54E-06,na,na
JVASP-7932,Hf2CuSb3,115,P-4m2,tetragonal,3D,0.0054,na,-10.28613113,-10.65859003,321.6109501,334.1309633,2736279.28,2729849.86,0.01383615,0.014547907,1.49E-06,1.49E-06,na,na
JVASP-7933,ZrSi2Cu,129,P4/nmm,tetragonal,3D,0.0356,0.0052,9.575482842,9.284086611,631.2446865,603.049139,2960947.033,2972443.433,0.012106679,0.011429138,9.71E-07,9.71E-07,na,na
JVASP-7934,TiFe2Sn,225,Fm-3m,cubic,3D,0.0294,0.0261,-18.71180167,24.14307433,57.94949902,100.8659033,165507.8033,173045.0733,0.004680609,0.008779129,3.48E-05,3.48E-05,-2.6442991,74.260406
JVASP-7935,ZnCo2Ge,225,Fm-3m,cubic,3D,0.0091,na,-24.652691,-24.30140033,2107.79356,2037.797037,3468162.267,3450629.467,0.021976599,0.021339127,8.17E-07,8.17E-07,na,na
JVASP-7936,NdCuSb2,129,P4/nmm,tetragonal,3D,0.0023,na,-1.796937,-4.261708,1939.790743,2263.83827,4401540.827,4316789.933,0.02794468,0.028745925,1.26E-06,1.26E-06,na,na
JVASP-7937,FeP2,58,Pnnm,orthorhombic,3D,0.0117,0.0453,-285.7863333,347.9874333,1692.494128,1263.787992,20467.656,9837.645567,0.704853852,0.511913839,0.046355727,0.046355727,-298.06442,425.0380733
JVASP-7939,TlInS2,194,P6_3/mmc,hexagonal,3D,0.0185,na,-128.68473,209.94779,1561.185365,2043.162265,92485.09467,54071.03367,0.409625057,0.675589206,0.17964215,0.17964215,-134.1350667,203.1525133
JVASP-7942,DyGa2,191,P6/mmm,hexagonal,3D,0.0045,0.0052,-3.296563257,-3.206706657,163.352989,147.7588631,4683431.333,4672777.133,0.001817573,0.001636477,6.35E-07,6.35E-07,na,na
JVASP-7947,Ce(GePt)2,139,I4/mmm,tetragonal,3D,0,na,29.866575,29.65591967,1974.019343,1959.454605,2226594.933,2241570.333,0.036976509,0.03647164,1.29E-06,1.29E-06,na,na
JVASP-7952,InAgS2,166,R-3m,trigonal,3D,0.0938,0.9516,14.99677543,62.63898033,199.8475828,1523.274125,317355.6667,338558.22,0.010052346,0.075711765,1.30E-05,1.30E-05,-81.50841833,145.4021467
JVASP-7954,Ce(CuGe)2,139,I4/mmm,tetragonal,3D,0.0009,na,69.05996867,68.997455,3437.179616,3483.540597,720497.7833,731368.34,0.163616226,0.164339764,5.10E-06,5.10E-06,na,na
JVASP-7955,Ni3Sn4,12,C2/m,monoclinic,3D,0.0006,na,-3.562787567,-3.491111767,131.7983792,117.7251151,4393089.5,4387566.433,0.001746858,0.00155566,7.50E-07,7.50E-07,na,na
JVASP-7957,AlFe3,225,Fm-3m,cubic,3D,0.0031,0.006,-22.311472,-22.50779467,1525.130256,1545.175514,3063730,3050084.9,0.021111866,0.021499252,9.26E-07,9.26E-07,na,na
JVASP-7958,MnAsRh,189,P-62m,hexagonal,3D,0.0048,na,13.4550942,13.55574043,176.9580662,173.1065372,810710.5067,813585.21,0.009482762,0.009201557,3.56E-06,3.56E-06,na,na
JVASP-7960,CaMnSn,129,P4/nmm,tetragonal,3D,0.0049,0.0194,7.385927933,7.0714532,56.87639015,52.35830379,1279806.783,1282954.953,0.002502163,0.002422706,2.72E-06,2.72E-06,1.734195467,1.358627467
JVASP-7962,YPb3,221,Pm-3m,cubic,3D,0.0029,na,11.172154,10.108444,1008.836038,832.7493284,8082519.5,8149776,0.005547015,0.004598327,3.38E-07,3.38E-07,na,na
JVASP-7963,InAgO2,194,P6_3/mmc,hexagonal,3D,0.5424,1.3418,-72.80606167,410.9664333,498.7288913,2874.313512,97100.751,16750.92933,0.12709213,1.470410979,0.13578498,0.13578498,-85.38618933,338.0914033
JVASP-7965,PrMnSi,129,P4/nmm,tetragonal,2D,0.0182,0.0032,1.164497,0.894234,328.8475608,333.4303743,1178550.567,1177894.1,0.010771431,0.010881884,2.37E-06,2.37E-06,-7.465504467,-7.9968686
JVASP-7966,ZrPbO3,38,Amm2,orthorhombic,3D,2.8086,3.9796,-131.57261,305.18719,1304.079186,2198.062138,75309.10167,23052.54167,0.405819648,0.995786737,0.317552692,0.317552692,-147.1351233,254.14403
JVASP-7967,CeAl3Ni2,191,P6/mmm,hexagonal,3D,0.0035,na,25.97210267,25.24501833,1887.381298,1796.313161,2808031.3,2830220.867,0.03083179,0.029119258,9.84E-07,9.84E-07,na,na
JVASP-7968,NaAuO2,63,Cmcm,orthorhombic,2D,1.1645,1.8512,-261.9971767,349.7570067,1951.219524,1474.757561,27303.4706,10641.517,0.814893262,0.745118881,1.659521064,1.659521064,-265.0365033,353.1729533
JVASP-7970,MgMnGe,129,P4/nmm,tetragonal,3D,0.0057,na,-5.529647333,-5.03163756,66.7159358,57.65680709,1619957.443,1617189.88,0.002299568,0.00199697,1.97E-06,1.97E-06,-5.3020313,-4.813832967
JVASP-7974,InSe,194,P6_3/mmc,hexagonal,2D,0.1769,na,-39.69280133,166.7784467,227.7159673,1720.3054,146321.5867,74957.10367,0.043305044,0.462661616,0.022097759,0.022097759,-45.53088967,191.2937167
JVASP-7978,Yb(FeGe)2,139,I4/mmm,tetragonal,3D,0.0021,na,-3.123634207,-3.262521653,142.1590342,140.4271549,1817642.2,1815927.933,0.002923613,0.002889855,1.53E-06,1.53E-06,na,na
JVASP-7981,LuTl3,221,Pm-3m,cubic,3D,0.0295,na,15.751907,15.199735,2104.8696,1979.372927,8483184.6,8567529.2,0.010489053,0.009778759,3.24E-07,3.24E-07,na,na
JVASP-7982,Pr2O3,164,P-3m1,trigonal,3D,3.8952,5.2144,-258.32058,451.9407067,1682.58982,1519.958059,24809.76067,7456.893867,0.774347469,0.852731557,1.063089051,1.063089051,-241.2957833,458.5717
JVASP-7983,MnS,225,Fm-3m,cubic,3D,0.0002,na,6.343463,6.123988067,186.6447175,174.9810805,4625386.767,4638028.967,0.00169839,0.001592691,6.07E-07,6.07E-07,8.6750033,8.5253403
JVASP-7985,DyMg,221,Pm-3m,cubic,3D,0.0238,0.03,-6.0980949,-6.3758878,91.60853435,99.93134352,2463471.7,2458218,0.00154856,0.001688694,1.12E-06,1.12E-06,na,na
JVASP-7986,TbN,225,Fm-3m,cubic,3D,0.4016,1.0105,-135.05018,193.55985,2347.090752,2133.168414,128688.4433,56937.00133,0.502639544,0.464114836,0.000547863,0.000547863,-109.04311,124.4706
JVASP-7987,BaTe2,140,I4/mcm,tetragonal,3D,0.117,1.2734,-274.83709,157.3564467,3890.422541,1302.458895,51441.82833,46694.10033,1.350089132,0.447175773,0.650411127,0.650411127,-274.9284033,128.5162167
JVASP-7988,TlF,225,Fm-3m,cubic,3D,2.2442,3.1691,-275.3249333,356.43894,2830.022413,2378.616216,37333.508,18722.08067,1.1977697,1.189548528,0.695657861,0.695657861,-185.37964,281.36392
JVASP-7989,LuCd,221,Pm-3m,cubic,3D,0.0007,0.0015,14.464329,14.003338,918.2868638,865.9450408,4389163.8,4415980.9,0.008965582,0.008392924,6.33E-07,6.33E-07,na,na
JVASP-7990,ErMg,221,Pm-3m,cubic,3D,0.0388,0.0453,-9.3166411,-9.8135153,240.7791857,266.3706901,2773960.1,2765904.8,0.003779734,0.004185178,9.83E-07,9.83E-07,na,na
JVASP-7991,ZnO,225,Fm-3m,cubic,3D,1.0781,2.5564,-62.842839,467.7322,435.3960842,6620.416242,110248.56,30261.52133,0.104603987,3.12867931,0.222701649,0.222701649,-53.942325,469.42454
JVASP-7992,GeO2,154,P3_221,trigonal,3D,3.2448,5.45,-121.10648,497.4106767,815.1502189,570.4517,55522.13267,2286.1941,0.289954149,0.335265228,0.486284536,0.486284536,-111.95855,486.9132767
JVASP-7993,AgN3,72,Ibam,orthorhombic,2D,1.8972,3.0017,-286.5661467,238.3177433,2988.1878,2607.319626,37292.29,42214.68267,1.182114435,0.88480037,1.152823498,1.152823498,-200.1699667,288.4496433
JVASP-7994,HgO2,12,C2/m,monoclinic,2D,0.4221,1.4724,-48.014862,91.50548633,495.4061395,745.7044219,63045.31733,59451.12633,0.087944963,0.160081181,0.000173966,0.000173966,-90.445845,92.13565833
JVASP-7995,SmCu5,191,P6/mmm,hexagonal,3D,0.0021,na,-15.01515303,-15.45214363,1647.866047,1650.558924,5274551.367,5257350,0.019282194,0.019499468,6.45E-07,6.45E-07,na,na
JVASP-7996,MnSe,216,F-43m,cubic,3D,0.0307,0.0099,-15.872846,-16.141722,562.2269262,579.9110229,2231526.433,2225674.433,0.010764849,0.011164127,1.25E-06,1.25E-06,na,na
JVASP-7997,ZrRh3,221,Pm-3m,cubic,3D,0.0054,na,-0.62370353,-0.7108536,2.775759164,3.604753092,7135515.9,7133705.7,1.61E-05,2.09E-05,3.90E-07,3.90E-07,na,na
JVASP-7999,Li3N,194,P6_3/mmc,hexagonal,3D,1.628,2.297,-164.32312,340.43152,1637.827747,1725.417536,60230.00733,14792.82903,0.565105482,0.881634566,0.483328793,0.483328793,-135.57538,340.4670267
JVASP-8000,Zr2Au,139,I4/mmm,tetragonal,3D,0.0004,0.0014,-0.5149045,0.153120783,13.96482085,11.09519038,2873234.633,2874527.667,0.000181157,0.000143276,1.01E-06,1.01E-06,na,na
JVASP-8001,IrF3,167,R-3c,trigonal,3D,1.2253,1.24,-465.48244,362.1397533,1445.9755,856.910452,6673.4538,6528.632133,0.829932365,0.47690886,3.586841766,3.586841766,na,na