JID,Composition,Spg.numb.,Spg.symb.,Cryst.,Dimensionality,OPT SCF gap, MBJ gap,n-Seebeck,p-Seebeck,n-powerfact,p-powerfact,n-cond,p-cond,n-ZT,p-ZT,Avg.elec.mass,Avg.hole mass,n-mp-Seeb,p-mp-Seeb
JVASP-8118,SiC,186,P6_3mc,hexagonal,3D,2.6183,3.4296,-183.4624167,294.6230333,2010.103445,1949.522816,61712.96133,22485.44967,0.696615724,0.928442246,0.644831862,0.644831862,-143.13022,292.6108367
JVASP-8119,ScSbPt,216,F-43m,cubic,3D,0.0956,0.7482,-305.63906,229.61913,2826.774904,2875.09692,30260.32,54530.10767,1.219181208,1.005583337,0.55992169,0.55992169,-328.3254,225.88536
JVASP-8120,CaZnSO,186,P6_3mc,hexagonal,3D,2.8876,4.5192,-79.12071367,260.5105667,535.2154605,1627.037238,78165.048,20500.26553,0.151780053,0.753367917,0.279944206,0.279944206,-80.94851367,273.8844367
JVASP-8121,Ca3AsN,221,Pm-3m,cubic,3D,0.759,1.4162,-166.01166,168.23253,1553.231626,1740.919989,56358.45,61511.86,0.565686455,0.607337851,0.574696312,0.574696312,-150.72669,164.13645
JVASP-8122,NaRuO2,166,R-3m,trigonal,3D,1.0281,na,53.20675733,55.108635,545.7745495,578.1636074,143000.3077,144598.4727,0.067718618,0.071978281,0.000115113,0.000115113,na,na
JVASP-8123,LiSnPd2,225,Fm-3m,cubic,3D,0.0166,na,-6.228629367,-6.350744133,414.2627892,429.2196946,10678025.33,10642175.33,0.0016003,0.001664132,2.64E-07,2.64E-07,na,na
JVASP-8124,KCeS2,166,R-3m,trigonal,3D,0.0018,na,-76.72024433,-77.14850333,584.2622957,581.3950054,72248.72633,71213.97433,0.167272814,0.167901519,4.85E-05,4.85E-05,na,na
JVASP-8125,NaCuSe,129,P4/nmm,tetragonal,3D,0.4938,na,-44.02368567,288.9786,243.1449468,2580.458074,125305.0633,27753.69253,0.053146129,1.079008986,0.01074346,0.01074346,-41.33045533,206.54611
JVASP-8126,NaCuTe,129,P4/nmm,tetragonal,3D,0.7544,2.4318,-59.62185767,262.5460433,427.8510019,2684.088899,118487.8,36122.62067,0.084521993,1.089859499,0.145431816,0.145431816,-62.162112,254.8193833
JVASP-8127,K2Sn2O3,166,R-3m,trigonal,3D,1.21,2.5826,-185.2809767,84.195441,1639.150555,500.2501222,47790.06433,70246.34367,0.615326371,0.15347995,0.518972922,0.518972922,-189.0245033,83.92781167
JVASP-8128,BaSe3,113,P-42_1m,tetragonal,3D,0.9964,1.9331,-212.3554567,381.4437733,1683.102025,1890.3741,37563.89233,12562.04627,0.654346964,1.007070035,0.515913451,0.515913451,-203.4421933,376.3371833
JVASP-8129,GeS2,122,I-42d,tetragonal,3D,2.2182,3.1314,-258.4676467,395.2331967,1614.655835,1388.090076,24255.788,8904.6259,0.727324207,0.772815788,0.866056084,0.866056084,-348.3956667,395.9567533
JVASP-8130,SiS2,122,I-42d,tetragonal,3D,3.0864,3.9742,-202.6907633,360.8669367,1844.920163,1775.820087,44978.919,13663.049,0.641815861,0.949544658,0.569790026,0.569790026,-273.7671033,367.34802
JVASP-8131,Mg2NF,141,I4_1/amd,tetragonal,3D,2.5079,4.2101,-83.27585833,380.4152533,542.8569543,1977.810972,78286.403,13711.16323,0.160151899,1.006581898,0.292114531,0.292114531,-79.51539967,376.9538867
JVASP-8132,NbAs2,12,C2/m,monoclinic,3D,0.0077,0.0075,-11.53269133,23.28738603,243.399866,362.1437979,290706.8633,294202.24,0.016528429,0.027268356,1.27E-05,1.27E-05,na,na
JVASP-8133,FeSe2,58,Pnnm,orthorhombic,3D,0.0425,na,-296.3948733,289.9546967,1844.99138,1389.93806,20922.579,16027.966,0.628624665,0.434044968,0.017273424,0.017273424,-338.0407933,337.9876733
JVASP-8134,SiB6,221,Pm-3m,cubic,3D,0.0402,0.0998,-165.64406,182.76611,1872.150964,3393.965986,68232.162,101605.25,0.238122216,0.517443117,0.0004816,0.0004816,-101.80316,127.80078
JVASP-8135,Li2UO4,139,I4/mmm,tetragonal,3D,2.2341,2.231,-503.3128033,424.70976,143.2511544,555.2638712,572.5920733,2946.930333,0.085061496,0.324550863,1446.263612,1446.263612,-549.8097033,389.8805967
JVASP-8137,Ba2ZnF6,139,I4/mmm,tetragonal,3D,5.0411,7.0375,-149.3851867,449.5102367,881.287133,1094.304621,38048.062,5804.6073,0.355239861,0.622059544,0.665836615,0.665836615,-140.4730133,472.8881533
JVASP-8138,NaAlO2,166,R-3m,trigonal,3D,5.3087,7.3082,-109.1171067,490.4582333,723.2326863,1627.197331,60723.09133,7014.802467,0.24513995,0.922374614,0.437965017,0.437965017,-101.54975,477.3021367
JVASP-8140,LaCd,221,Pm-3m,cubic,3D,0.0056,na,4.4539204,4.3317479,73.49611479,69.5839575,3704925.5,3708367.6,0.000819503,0.00077301,7.57E-07,7.57E-07,na,na
JVASP-8141,Sr(ZnAs)2,164,P-3m1,trigonal,3D,0.48,1.1129,-78.40070233,190.42321,929.5815546,2176.1306,160522.903,60300.38767,0.147448423,0.716389382,0.015618198,0.015618198,-96.68447233,186.5938533
JVASP-8142,Sr(CdAs)2,164,P-3m1,trigonal,3D,0.2058,na,-115.672499,203.4609067,711.1444014,2344.236329,175076.0567,57024.59,0.154665556,0.796489038,0.013635587,0.013635587,-87.78979133,206.8845267
JVASP-8143,RbSnS2,160,R3m,trigonal,3D,1.2843,na,30.492906,28.34912367,917.1844918,772.3196442,1182650.903,1196075.477,0.043080043,0.03676587,7.10E-06,7.10E-06,na,na
JVASP-8144,SrSO4,216,F-43m,cubic,3D,4.0244,7.8058,-138.11363,433.32605,854.79528,2157.749008,44811.454,11491.35733,0.333703569,1.194025316,0.614908088,0.614908088,-132.6601,436.70968
JVASP-8145,HgO,152,P3_121,trigonal,3D,1.3072,2.0125,-224.3186067,385.2209833,1884.48581,1050.446719,42689.61267,7316.333767,0.702451103,0.598744875,1.916216847,1.916216847,-256.2658,404.54804
JVASP-8146,AlAgS2,156,P3m1,trigonal,3D,1.8397,2.9143,-190.1929733,370.56436,2876.204985,2834.467454,78480.007,20277.754,0.74697135,1.392199694,0.279037532,0.279037532,-173.7957067,357.97472
JVASP-8147,Mg3As2,164,P-3m1,trigonal,3D,1.1066,1.6182,-247.97815,162.5983533,5132.975228,1200.103535,82500.23733,52763.92433,1.579640595,0.398376471,0.335143044,0.335143044,-203.9526133,155.1436133
JVASP-8148,Rb2O2,71,Immm,orthorhombic,3D,2.177,4.2772,-200.9638333,332.7306267,1581.365553,859.6780076,39073.17467,7722.2021,0.656018005,0.474854214,0.651233124,0.651233124,-210.91215,354.43448
JVASP-8149,K3P,194,P6_3/mmc,hexagonal,3D,0.4816,1.8067,-58.79370167,333.2528367,348.2148166,583.2124885,100725.7967,5218.429667,0.087985891,0.267746347,0.014387621,0.014387621,-54.759881,171.7346
JVASP-8150,SiO2,72,Ibam,orthorhombic,3D,4.9004,6.8052,-123.51294,326.4774667,823.5211203,1003.838927,53592.82767,9379.759567,0.290076674,0.539267722,0.489309231,0.489309231,-127.75811,358.1441
JVASP-8151,KNbSe2,194,P6_3/mmc,hexagonal,3D,0.8041,1.1929,-325.0779467,192.2917767,3435.053421,1334.115168,35276.55633,39712.65333,1.531115174,0.508568914,0.980485074,0.980485074,-319.5446867,186.6261
JVASP-8152,Li3Sb,194,P6_3/mmc,hexagonal,3D,0.3163,0.8467,-132.9788367,228.4957033,1427.570425,1980.128932,79179.09633,36870.18167,0.427218664,0.809751296,0.343043673,0.343043673,-117.99636,225.35578
JVASP-8153,Mg2SiO4,139,I4/mmm,tetragonal,2D,4.0209,6.3284,-104.6627573,316.9841233,653.7808546,1824.414399,58722.22533,19060.06867,0.220660484,0.902365884,0.373179527,0.373179527,-105.3176067,317.4003167
JVASP-8154,S,148,R-3,trigonal,3D,1.9604,3.0448,-395.1873233,290.6131633,1791.444025,1191.767793,11367.32533,13123.9259,0.983988171,0.584725839,1.75142726,1.75142726,-406.4155367,362.04187
JVASP-8155,LiGaO2,166,R-3m,trigonal,3D,4.054,na,-114.35348,485.1696333,763.6218796,3648.028525,58124.87967,15590.33367,0.262107092,1.88180219,0.460235946,0.460235946,-105.0871367,506.3772867
JVASP-8157,BaThO3,221,Pm-3m,cubic,3D,3.3381,4.4506,-198.56854,420.40232,1616.929063,3970.906802,41008.141,22467.745,0.646211721,1.865593644,0.603727943,0.603727943,-193.89379,397.36382
JVASP-8158,SiC,216,F-43m,cubic,3D,1.6198,2.3079,-162.11101,333.73345,2187.766566,4334.413959,83248.412,38916.24333,0.658056152,1.773119791,0.305169217,0.305169217,-155.90809,319.15525
JVASP-8160,UO3,164,P-3m1,trigonal,3D,1.8707,1.7106,-535.7936633,445.5670667,1483.591854,2720.9408,5430.895533,13833.3829,0.856276845,1.457393807,7.387185878,7.387185878,-544.66166,442.0109
JVASP-8161,ThSO,129,P4/nmm,tetragonal,3D,1.2686,1.7923,-134.5972567,271.52978,957.9918593,2052.081475,54544.27133,27779.13367,0.344850598,0.924388427,0.692816095,0.692816095,-134.0771567,277.7071433
JVASP-8162,RbScO2,166,R-3m,trigonal,3D,3.3994,4.5633,-249.3866733,448.4297467,2485.276642,1961.88915,39983.86133,9730.5471,1.025721749,1.089614872,0.685129635,0.685129635,-245.7060567,443.75487
JVASP-8163,LiTlO2,141,I4_1/amd,tetragonal,3D,0.5618,1.3555,-99.78253733,382.7410167,639.4767249,2978.035881,64136.43,25441.55467,0.209802829,1.327162313,0.277922298,0.277922298,-93.96541433,409.5070867
JVASP-8165,AgNO3,160,R3m,trigonal,2D,1.6004,2.6272,-220.0208633,413.0482133,1353.768323,1451.048537,27559.93533,8523.7255,0.57871872,0.805585913,1.778048708,1.778048708,-228.3100367,419.3320333
JVASP-8166,GaGeTe,166,R-3m,trigonal,2D,0.0062,na,-157.35899,86.16019933,3281.922642,767.3757972,140297.4403,99065.70933,0.691962707,0.172888491,0.000533882,0.000533882,-137.4452667,142.0468567
JVASP-8167,ZrSO,129,P4/nmm,tetragonal,3D,0.9563,1.3337,-108.0526067,205.7837967,782.8052722,1697.305514,67033.28233,40640.18533,0.247412323,0.664303478,0.503780197,0.503780197,-115.9206,220.3459967
JVASP-8168,BaTe3,113,P-42_1m,tetragonal,3D,0.7548,1.2887,-191.1278033,360.92939,1513.106205,2601.374205,41670.75067,19879.45267,0.566695871,1.314102807,0.421509148,0.421509148,-181.34494,376.11813
JVASP-8169,GaN,216,F-43m,cubic,3D,1.7857,2.9033,-59.538158,335.27039,397.281907,2896.345551,112074.8067,25766.76967,0.094329713,1.315494484,0.206279224,0.206279224,-51.68821,329.27386
JVASP-8170,RbTe,55,Pbam,orthorhombic,3D,0.8585,1.705,-290.3238967,201.85759,1118.696599,1250.94409,13145.7082,31611.10667,0.589442898,0.477060467,1.76166343,1.76166343,-273.44597,209.10484
JVASP-8171,GeP,216,F-43m,cubic,3D,0.014,na,-10.037976,-10.167426,620.1966129,634.260336,6155127.933,6135437.167,0.004185922,0.004290522,4.55E-07,4.55E-07,na,na
JVASP-8172,Li3NdAs2,164,P-3m1,trigonal,3D,0.091,0.3977,-180.7037833,160.3630233,2651.049885,1460.302955,76523.32767,66080.39633,0.728705676,0.393500911,0.00116453,0.00116453,-146.459796,143.4156067
JVASP-8173,RbNaO,129,P4/nmm,tetragonal,3D,2.5351,4.4086,-86.36800833,458.8266867,568.2332393,721.6735781,76472.66533,3409.976067,0.169903443,0.418796974,0.311518353,0.311518353,-87.474978,459.8985967
JVASP-8174,Sb2TeSe2,160,R3m,trigonal,2D,0.044,na,-185.5990033,237.7555,2951.194016,5122.498471,86522.925,90565.00167,0.781070388,1.609329597,0.226784347,0.226784347,-165.68421,287.7920733
JVASP-8175,Ca2SiO4,139,I4/mmm,tetragonal,3D,4.5154,5.9563,-120.5835267,331.2818367,740.6417026,1857.497567,50955.08067,17146.108,0.273006596,0.957142848,0.464761788,0.464761788,-149.9451867,355.3267733
JVASP-8176,Sm,166,R-3m,trigonal,3D,0.002,na,-9.550889767,-9.7187798,564.246353,546.1865734,3288544.1,3278314.5,0.007812871,0.007603663,8.95E-07,8.95E-07,na,na
JVASP-8177,TlN3,140,I4/mcm,tetragonal,3D,1.849,2.4136,-194.1413333,142.2076067,1807.217479,892.6440487,49288.198,43914.79933,0.688802491,0.342748831,0.539018995,0.539018995,-201.3395833,147.28948
JVASP-8178,FeSi,198,P2_13,cubic,3D,0.0098,0.0158,-11.024411,1.5717259,19.38576249,0.392720229,159504.19,158975.3,0.001306701,2.64E-05,0.000103168,0.000103168,-25.476351,-8.2140828
JVASP-8179,SnS,39,Aem2,orthorhombic,3D,0.7455,0.5847,-187.7014633,216.5629267,3100.590029,3677.369614,94593.34667,85800.78167,0.856037021,1.00810067,0.566492465,0.566492465,-277.1322867,182.8411867
JVASP-8180,HoN,225,Fm-3m,cubic,3D,0.3324,1.143,-143.23082,208.01466,2454.365611,2281.89177,119637.2167,52735.99633,0.584887373,0.65852924,0.002196418,0.002196418,-122.73924,179.38589
JVASP-8181,Na3As,225,Fm-3m,cubic,3D,0.6758,1.5012,-33.504065,375.02083,167.0803382,3478.685755,148843.66,24734.573,0.031424212,1.620821124,0.027397221,0.027397221,-33.637208,318.42548
JVASP-8182,AlP,186,P6_3mc,hexagonal,3D,2.0495,2.6148,-257.4588333,259.8521,5526.466041,1813.89413,73139.52533,26990.546,1.620620852,0.833163766,0.416428526,0.416428526,-274.4437233,264.5750967
JVASP-8183,AlAs,186,P6_3mc,hexagonal,3D,1.8075,2.5597,-238.22041,243.2107267,3810.504102,1806.620295,62419.137,30699.46467,1.146600751,0.804432235,0.4606426,0.4606426,-267.2151067,240.5650933
JVASP-8184,GaP,186,P6_3mc,hexagonal,3D,1.2628,2.1751,-219.69293,212.1403967,3730.538326,1752.137905,77416.301,39215.55733,0.969526101,0.724912545,0.450130698,0.450130698,-233.01514,209.58819
JVASP-8185,GaAs,186,P6_3mc,hexagonal,3D,0.5154,1.3135,-76.03233,190.2876367,1013.418189,1531.155668,185318.13,42857.74133,0.141683225,0.584207165,0.001482028,0.001482028,-69.05324333,193.61705
JVASP-8186,ZnTe,186,P6_3mc,hexagonal,3D,1.0786,2.2585,-47.71662533,235.2870167,337.6884847,1815.144299,146304.31,32930.627,0.061966505,0.795805927,0.12613029,0.12613029,-64.275798,237.0856567
JVASP-8187,TaCuN2,166,R-3m,trigonal,3D,0.5781,1.0173,-295.08316,164.8158933,4677.256278,1592.687499,53608.623,60013.257,1.849688214,0.509776066,0.488295761,0.488295761,-280.3009333,173.7921333
JVASP-8188,Si2Mo,180,P6_222,hexagonal,3D,0.0176,0.4164,-131.4486383,159.9447433,853.9618127,1490.762747,44919.755,57524.10967,0.198400023,0.372438628,0.000462072,0.000462072,-155.7844067,168.0775233
JVASP-8189,Si2W,180,P6_222,hexagonal,3D,0.0401,0.0753,-132.8292067,84.662421,1556.515222,644.6011547,80492.37567,84856.61033,0.190635336,0.094070244,0.000133995,0.000133995,-164.4303833,113.6851643
JVASP-8190,Cu2WS4,111,P-42m,tetragonal,2D,0.7872,1.5542,921.25035,333.2058867,2.198793344,1969.928846,2.514824833,17730.23033,0.001318789,1.003955898,1481.122604,1481.122604,-301.9527167,332.4491367
JVASP-8191,ZrPdF6,148,R-3,trigonal,3D,1.07,3.6062,-357.1500033,413.7322533,1244.092535,946.9778377,9752.306967,5521.714467,0.705198038,0.550980474,2.249229922,2.249229922,-332.9913667,386.7871133
JVASP-8194,CaP3,2,P-1,triclinic,3D,0.049,0.3433,-60.93420633,38.946821,532.9315618,1620.448418,105883.5897,88935.619,0.106068218,0.28254104,6.47E-05,6.47E-05,-89.05029667,87.96464167
JVASP-8195,CaC2,12,C2/m,monoclinic,3D,2.5227,3.0372,-174.1183667,429.8955167,1874.534445,992.1186765,62336.88767,5442.3214,0.632055161,0.572273781,0.484581936,0.484581936,-201.17334,425.3716667
JVASP-8196,SmCuSeO,129,P4/nmm,tetragonal,3D,1.4738,2.3454,-83.44564167,281.6926267,500.4486635,1767.245479,69362.53967,20583.79977,0.152483192,0.849782926,0.291063359,0.291063359,-75.838455,279.5419433
JVASP-8197,Tm2Fe2Si2C,12,C2/m,monoclinic,3D,0.0056,0.0021,-4.05967421,-3.984045827,30.93354732,29.41047104,1210861.05,1207818.19,0.00084774,0.000843333,2.54E-06,2.54E-06,na,na
JVASP-8198,HgS,154,P3_221,trigonal,3D,1.3994,2.3984,-138.6456333,339.9853367,999.0293181,1447.503708,54581.127,12029.2441,0.364181317,0.76694295,0.732438754,0.732438754,-147.93486,358.2307633
JVASP-8199,Yb(CdSb)2,164,P-3m1,trigonal,3D,0.0238,na,-144.7638667,159.74592,3123.223512,2042.64656,169905.9897,80626.65933,0.486891504,0.511087958,0.000726411,0.000726411,-152.54096,166.8201833
JVASP-8201,DyCuSeO,129,P4/nmm,tetragonal,3D,1.384,2.3015,-76.79874233,287.9675433,477.6611762,1986.420197,75697.77967,21958.90827,0.137402339,0.947443563,0.261257338,0.261257338,-69.18728333,282.78008
JVASP-8202,Sr(SnAs)2,166,R-3m,trigonal,3D,0.0036,na,-206.1135933,127.03965,4017.998351,1239.46216,93135.47567,78522.25133,0.789778392,0.291803993,0.000653094,0.000653094,-167.71567,100.849115
JVASP-8203,Sr2ZnCu2(SO)2,139,I4/mmm,tetragonal,3D,1.006,na,-69.15834,294.6679833,446.7420717,1413.217535,93337.015,33952.52483,0.119310139,0.556831093,0.248177064,0.248177064,-61.68359567,344.7393967
JVASP-8204,NiPt,123,P4/mmm,tetragonal,3D,0.0003,0.0004,-5.601340833,-5.530067967,197.2398439,192.8814902,5753394.867,5749462.3,0.001285495,0.001256427,5.01E-07,5.01E-07,1.6017864,1.597928767
JVASP-8205,KAg2SbS4,121,I-42m,tetragonal,3D,0.4774,1.45,-73.65748,159.20598,381.8382796,961.6154563,70592.658,38124.87833,0.118861338,0.360452959,0.002836767,0.002836767,-73.23417367,301.8524633
JVASP-8206,Mg(AlC)2,164,P-3m1,trigonal,3D,2.0032,2.5088,-256.834,289.9070633,3711.985232,2797.516633,55505.08267,35764.36167,1.303546955,1.133003047,0.72244138,0.72244138,-224.8927,279.73274
JVASP-8207,Li3Ga2,166,R-3m,trigonal,3D,0.01,na,5.486332667,5.362082967,207.1496173,199.2222782,6393125.1,6429288.333,0.001265676,0.001208756,4.51E-07,4.51E-07,na,na
JVASP-8208,NaBeSb,194,P6_3/mmc,hexagonal,3D,1.0869,1.6979,-276.2104833,249.4054633,4012.075845,3115.357842,54364.44433,50717.27683,1.468469282,0.999785423,0.491790844,0.491790844,-276.9901,225.00047
JVASP-8209,LiBeSb,186,P6_3mc,hexagonal,3D,1.1332,na,-270.16199,198.9727,5762.749345,2119.953952,79331.12367,53516.52133,1.486752013,0.776268635,0.665931594,0.665931594,-265.91228,184.7534367
JVASP-8210,AlTlSe2,140,I4/mcm,tetragonal,1D,0.2167,na,-99.964993,225.09003,895.2808088,1656.585616,80198.144,38360.53467,0.225343716,0.685737176,0.378112618,0.378112618,-96.72820333,231.83782
JVASP-8211,TlGaSe2,140,I4/mcm,tetragonal,1D,0.1924,1.1585,-218.4554767,233.7678267,2165.797425,1205.557251,48288.54067,23840.63867,0.794090166,0.573466311,0.784198375,0.784198375,-110.08791,219.9328533
JVASP-8212,TlCrS2,160,R3m,trigonal,3D,0.0149,0.0004,-97.27469567,-22.270785,1437.564549,148.0921386,129380.7367,108121.388,0.154732237,0.015016641,6.18E-05,6.18E-05,na,na
JVASP-8213,Cr3S4,12,C2/m,monoclinic,3D,0.0046,na,0.474780933,0.406248033,96.65111199,100.738501,699820.49,701211.9867,0.004989972,0.005241163,4.51E-06,4.51E-06,na,na
JVASP-8214,Tl3AsS3,160,R3m,trigonal,3D,1.0815,1.7797,-192.41938,356.6041867,1550.444477,2019.291007,39635.786,16314.55367,0.530406999,1.035821708,0.403230715,0.403230715,-228.2869667,337.3330933
JVASP-8215,Te3As2,166,R-3m,trigonal,2D,0.0071,na,-241.5898333,212.7043267,7357.030593,4031.592038,127721.187,88865.15833,1.483339847,1.014794853,0.014046089,0.014046089,-230.63252,267.67736
JVASP-8216,BaCuAs,194,P6_3/mmc,hexagonal,3D,0.0241,na,-29.68494213,-9.823326667,233.9803656,262.0675602,238115.65,236502.7633,0.050483064,0.046884948,1.75E-05,1.75E-05,na,na
JVASP-8218,HfS3,11,P2_1/m,monoclinic,2D,1.1833,1.9271,-196.53892,314.3468167,1836.427149,1669.846954,39522.3699,15609.61773,0.642989872,0.75403719,2.91779622,2.91779622,-161.5616933,308.8650533
JVASP-8219,Ca2Sb,139,I4/mmm,tetragonal,3D,0.0794,0.1404,6.417691667,22.90016367,403.5823997,250.0632606,109976.8873,102546.538,0.078666741,0.075690637,7.60E-05,7.60E-05,-2.134212,19.43378133
JVASP-8220,Ti2FeS4,12,C2/m,monoclinic,3D,0.0022,na,-13.29557313,-13.47354073,218.0465413,219.3161596,724137.5867,720603.53,0.011626947,0.011741895,3.94E-06,3.94E-06,na,na
JVASP-8222,Al2Cu,140,I4/mcm,tetragonal,3D,0.0011,na,4.345177,4.055924367,382.5656839,345.3108053,15776946.67,15815325,0.001092764,0.000983419,1.79E-07,1.79E-07,6.349122133,6.033815067
JVASP-8227,LaVCrO6,1,P1,triclinic,3D,0.0016,0.0042,1.135455977,1.149718047,3.441674851,3.400194984,1579975.4,1579793.967,8.45E-05,8.33E-05,1.77E-06,1.77E-06,na,na
JVASP-8235,AlCuO2,166,R-3m,trigonal,3D,2.0658,2.0632,-185.99442,464.50033,1204.321567,2808.391899,33628.91867,12540.439,0.468359155,1.512827149,1.030847965,1.030847965,na,na
JVASP-8236,AlSnO3,221,Pm-3m,cubic,3D,0.0109,0.036,9.8835144,9.2884888,258.2177906,229.2159669,2643402.9,2656774.8,0.004180389,0.003688003,1.04E-06,1.04E-06,na,na
JVASP-8237,CaMoF6,148,R-3,trigonal,3D,1.1968,2.7517,75.100192,72.200523,131.5799001,123.418521,24725.269,25103.18233,0.073949157,0.06931486,8.82E-05,8.82E-05,na,na
JVASP-8238,CrF6,148,R-3,trigonal,0D,1.9186,na,-507.6096133,541.0507533,241.2274737,51.93327863,936.72722,177.3262067,0.144348951,0.031152526,16.70080802,16.70080802,na,na
JVASP-8241,SbN,221,Pm-3m,cubic,3D,0.051,0.05,18.342151,17.823491,4532.726888,4309.196316,13472836,13564717,0.014745419,0.013926985,2.06E-07,2.06E-07,na,na
JVASP-8242,TiS2,166,R-3m,trigonal,2D,0.0062,na,-20.52281167,57.22387267,97.50803698,815.3910441,197985.7707,227321.4227,0.018840616,0.056579748,6.09E-05,6.09E-05,na,na
JVASP-8244,WO2,166,R-3m,trigonal,2D,0.0072,na,18.67825467,18.82989767,840.5303914,860.3961363,3184149.127,3196672.85,0.01216875,0.012375432,5.74E-06,5.74E-06,na,na
JVASP-8245,MnO2,166,R-3m,trigonal,2D,0.7355,0.0093,-405.04219,379.53131,1541.545447,992.2259991,15918.82517,6851.420833,0.759836346,0.559454318,211.9517734,211.9517734,na,na
JVASP-8246,CrO2,166,R-3m,trigonal,2D,0.0153,0.0019,18.20445967,18.612491,1110.132422,1137.906339,725798.1433,733831.7933,0.041745453,0.042447097,1.20E-05,1.20E-05,na,na