JID,Composition,Spg.numb.,Spg.symb.,Cryst.,Dimensionality,OPT SCF gap, MBJ gap,n-Seebeck,p-Seebeck,n-powerfact,p-powerfact,n-cond,p-cond,n-ZT,p-ZT,Avg.elec.mass,Avg.hole mass,n-mp-Seeb,p-mp-Seeb
JVASP-808,Ho,194,P6_3/mmc,hexagonal,3D,0.0018,0.002,-2.3485169,-2.777740853,46.89077404,45.37930817,4291183,4290022.933,0.000611179,0.000626065,7.41E-07,7.41E-07,2.112129667,1.620640933
JVASP-915,Lu,194,P6_3/mmc,hexagonal,3D,0.0144,na,6.281997967,5.859889733,835.7626936,781.6061659,2998033.133,3005493.367,0.00969541,0.009029978,1.01E-06,1.01E-06,na,na
JVASP-916,Lu,194,P6_3/mmc,hexagonal,3D,0.0115,na,1.670195667,1.2647851,118.0171862,92.43680237,3859607.8,3862357.433,0.000989278,0.000781719,8.46E-07,8.46E-07,na,na
JVASP-1003,Si,227,Fd-3m,cubic,3D,0.1266,na,-224.13312,223.15013,4100.952369,3821.190655,81634.296,76736.92967,1.271442093,1.096887091,0.213342974,0.213342974,-226.52627,221.6628
JVASP-1001,Si,227,Fd-3m,cubic,3D,0.6361,na,-224.56028,225.55281,4076.706032,3774.232489,80843.20333,74187.744,1.269107213,1.114379714,0.314320631,0.314320631,-226.52627,221.6628
JVASP-1002,Si,227,Fd-3m,cubic,3D,0.7313,1.2764,-224.03497,230.2330067,4049.271422,3840.287768,80676.168,72448.36667,1.2544683,1.160918732,0.3089757,0.3089757,-226.52627,221.6628
JVASP-920,Mg,194,P6_3/mmc,hexagonal,3D,0.0049,na,-3.691700033,-3.534372667,184.6967034,172.8036296,12384219.33,12353808.33,0.000575696,0.000537187,2.32E-07,2.32E-07,-4.838120933,-4.846280433
JVASP-918,Mg,194,P6_3/mmc,hexagonal,3D,0.0071,na,-3.704975933,-3.542530733,182.1870613,169.6845205,12011593,11981605.67,0.000583647,0.000542685,2.39E-07,2.39E-07,-4.838120933,-4.846280433
JVASP-919,Mg,194,P6_3/mmc,hexagonal,3D,0.0109,0.0088,-3.566918433,-3.356201567,169.4656952,154.7732498,11744751.33,11716778.33,0.000545325,0.000495366,2.46E-07,2.46E-07,-4.838120933,-4.846280433
JVASP-829,B,166,R-3m,trigonal,3D,1.3918,na,-300.2137933,113.5871367,2937.334948,1234.918891,32387.08167,91765.17767,1.161489107,0.285430661,1.191397852,1.191397852,-356.0137467,118.24768
JVASP-827,B,166,R-3m,trigonal,3D,1.4552,na,-350.3931167,112.4528633,3754.28713,1244.091365,30687.30667,93020.06067,1.681651962,0.286290668,0.956982659,0.956982659,-356.0137467,118.24768
JVASP-828,B,166,R-3m,trigonal,3D,1.6875,1.7865,-347.1847367,118.42916,3622.009105,1270.20771,29789.05267,86689.98767,1.607462652,0.304557846,1.107615545,1.107615545,-356.0137467,118.24768
JVASP-1024,Te,152,P3_121,trigonal,3D,0.0244,na,-171.1836933,114.0157607,4929.497582,2449.418462,168465.1267,161937.5533,0.461436959,0.247519968,4.30E-05,4.30E-05,-252.44626,259.0604567
JVASP-1022,Te,152,P3_121,trigonal,3D,0.0191,na,-178.51506,247.3957533,3308.307507,4455.399475,104794.414,71227.48667,0.583957325,1.144882101,0.009072723,0.009072723,-252.44626,259.0604567
JVASP-1023,Te,152,P3_121,trigonal,3D,0.0275,0.6165,-168.10695,239.8423033,3092.423581,4305.807084,111428.1693,73358.977,0.512360174,1.049953554,0.004766541,0.004766541,-252.44626,259.0604567
JVASP-880,F2,223,Pm-3n,cubic,3D,0.0083,na,-1.036926,-0.78776489,1.33380766,0.769692375,1240502.6,1240292,3.67E-05,2.12E-05,2.43E-06,2.43E-06,-39.888122,-39.654173
JVASP-878,F2,223,Pm-3n,cubic,3D,0.0019,na,1.1903635,1.5263254,1.221290252,2.007862069,861905.57,861865.73,4.52E-05,7.43E-05,3.62E-06,3.62E-06,-39.888122,-39.654173
JVASP-879,F2,223,Pm-3n,cubic,3D,0.0011,0.0037,3.4458582,3.8195874,9.447128175,11.61073769,795618.74,795842.1,0.000369497,0.000454019,3.93E-06,3.93E-06,-39.888122,-39.654173
JVASP-856,Cl2,64,Cmce,orthorhombic,3D,1.9576,na,-353.73001,332.9286,2148.143159,1472.001594,15979.07077,13357.2,1.059231128,0.717251009,11.56277791,11.56277791,-392.6704533,501.6539233
JVASP-854,Cl2,64,Cmce,orthorhombic,3D,2.4045,na,-323.3914033,439.2337067,1418.542847,1120.575949,12200.093,6610.903533,0.731584022,0.621922297,8.545322326,8.545322326,-392.6704533,501.6539233
JVASP-855,Cl2,64,Cmce,orthorhombic,3D,2.3225,3.7461,-358.05101,473.09552,1624.863895,1477.490667,11811.53847,6614.514667,0.845762339,0.843203038,8.036300969,8.036300969,-392.6704533,501.6539233
JVASP-838,Bi,166,R-3m,trigonal,2D,0.0052,na,-7.238303633,121.2240123,248.4687452,12796.20632,515042.4433,681744.3867,0.008605573,0.29086033,9.33E-06,9.33E-06,20.29837267,107.0717123
JVASP-836,Bi,166,R-3m,trigonal,2D,0.0119,na,35.7804329,95.16769733,2104.243171,11105.32489,512941.0433,697991.29,0.063124903,0.336654591,6.90E-06,6.90E-06,20.29837267,107.0717123
JVASP-837,Bi,166,R-3m,trigonal,2D,0.0131,0.0392,23.12461833,105.0482847,1299.880717,11890.84932,464253.97,638461.0833,0.042858027,0.368590417,8.45E-06,8.45E-06,20.29837267,107.0717123
JVASP-896,I,64,Cmce,orthorhombic,3D,0.7022,na,-278.0882,246.21487,3143.921452,3176.685833,39289.67367,52415.24233,1.155575028,1.104548486,1.418819639,1.418819639,-324.41036,343.27736
JVASP-894,I,64,Cmce,orthorhombic,3D,1.0234,na,-294.8595467,321.22582,2213.219132,2648.06379,21805.87307,26108.09543,1.062876472,1.138105291,46.75434345,46.75434345,-324.41036,343.27736
JVASP-895,I,64,Cmce,orthorhombic,3D,0.9145,1.6126,-307.8885367,264.4673167,2108.900849,2519.990012,20394.555,35511.38733,0.990827785,1.01280224,2.599164263,2.599164263,-324.41036,343.27736
JVASP-841,Br,64,Cmce,orthorhombic,3D,1.0759,na,-342.42939,360.2338067,2880.655807,6755.192112,22214.15933,44969.98133,1.333862577,2.425440102,4.043842501,4.043842501,-354.3084733,408.0673533
JVASP-839,Br,64,Cmce,orthorhombic,3D,1.3257,na,-341.8382867,383.99269,1826.818331,3027.603365,13026.88117,16709.1322,0.944141108,1.349679434,45.8278609,45.8278609,-354.3084733,408.0673533
JVASP-840,Br,64,Cmce,orthorhombic,3D,1.3111,2.4324,-370.0649433,397.59281,2037.228241,4598.536534,12956.1175,28115.244,1.055219882,2.024931701,8.29378024,8.29378024,-354.3084733,408.0673533
JVASP-819,Ar,225,Fm-3m,cubic,3D,8.7176,13.6387,-139.88646,541.01706,912.9189405,1409.313845,46653.13767,4814.883667,0.348418953,0.808758054,0.592688384,0.592688384,-145.66025,562.44282
JVASP-801,He,229,Im-3m,cubic,3D,17.8352,32.0156,-560.42713,438.05154,2273.122708,716.7173926,7237.433367,3735.059467,1.291895689,0.412356828,3.762444866,3.762444866,-552.65321,428.73288
JVASP-911,La,194,P6_3/mmc,hexagonal,3D,0.0019,na,-27.67092533,-27.44065567,2264.675399,2218.583048,2688096.6,2662716.2,0.030996405,0.030412833,1.07E-06,1.07E-06,-30.30818467,-30.06962067
JVASP-798,Ge,227,Fd-3m,cubic,3D,0.0968,na,-131.29737,172.47582,3896.994699,3396.517527,226056.8967,114176.6833,0.573547618,0.729762134,0.0006076,0.0006076,-120.65472,139.95881
JVASP-797,Ge,227,Fd-3m,cubic,3D,0.0156,na,-123.29194,140.92403,3539.888222,2223.759906,232873.5567,111974.1533,0.486136957,0.341272621,0.000151609,0.000151609,-120.65472,139.95881
JVASP-890,Ge,227,Fd-3m,cubic,3D,0.0128,0.6063,-92.85120833,49.04418,2448.323282,449.7358,283983.85,186974.5533,0.22939142,0.039120579,2.71E-05,2.71E-05,-120.65472,139.95881
JVASP-988,Ru,194,P6_3/mmc,hexagonal,3D,0.0014,na,0.827575567,0.816574133,252.582154,251.6740743,16945568.33,16951703,0.000534347,0.000532473,1.69E-07,1.69E-07,0.274537767,0.269240533
JVASP-986,Ru,194,P6_3/mmc,hexagonal,3D,0.0004,na,0.5447064,0.5341464,263.1563952,263.3888973,15404034,15408756.33,0.000621509,0.000622277,1.85E-07,1.85E-07,0.274537767,0.269240533
JVASP-987,Ru,194,P6_3/mmc,hexagonal,3D,0.0024,0.0011,0.188213633,0.183364767,200.1454359,200.2909132,15793553.33,15796007,0.000470243,0.000470552,1.81E-07,1.81E-07,0.274537767,0.269240533
JVASP-922,Mn,217,I-43m,cubic,3D,0.0014,na,-26.053136,-26.65516,256.0857858,267.0206522,377281.4567,375822.0567,0.029303386,0.03057498,7.04E-06,7.04E-06,na,na
JVASP-968,Pr,194,P6_3/mmc,hexagonal,3D,0.0023,na,-28.361095,-28.74848333,2294.934501,2334.533626,2946133.1,2911858.267,0.033109503,0.033630923,9.87E-07,9.87E-07,-27.883332,-28.33566067
JVASP-969,Pr,194,P6_3/mmc,hexagonal,3D,0.0009,0.0014,-28.61609233,-28.93057233,2473.302224,2508.054339,3061007.533,3026186.333,0.033344391,0.033773661,9.54E-07,9.54E-07,-27.883332,-28.33566067
JVASP-1039,U,63,Cmcm,orthorhombic,3D,0,na,3.748676267,3.687972967,385.422558,383.295954,6788587.133,6791846,0.002317838,0.002305092,4.14E-07,4.14E-07,4.9087458,4.8473839
JVASP-1037,U,63,Cmcm,orthorhombic,3D,0.0005,na,5.8827681,5.825514633,384.6452015,383.3510474,5843372.5,5847644.8,0.002697267,0.002686359,4.78E-07,4.78E-07,4.9087458,4.8473839
JVASP-1038,U,63,Cmcm,orthorhombic,3D,0.0008,na,3.429704533,3.374443167,363.6247735,365.1185994,5481887.1,5484330.3,0.00273606,0.002749489,5.16E-07,5.16E-07,4.9087458,4.8473839
JVASP-953,Os,194,P6_3/mmc,hexagonal,3D,0.0005,na,-2.079609742,-2.08103094,87.48028602,87.19188108,15295869,15286543,0.000258758,0.000258157,1.88E-07,1.88E-07,-2.464866226,-2.461931315
JVASP-951,Os,194,P6_3/mmc,hexagonal,3D,0.0009,na,-2.306691517,-2.314145497,110.3519729,109.3076143,14013808.67,14004800.67,0.00035856,0.000355703,2.05E-07,2.05E-07,-2.464866226,-2.461931315
JVASP-952,Os,194,P6_3/mmc,hexagonal,3D,0.0005,0,-1.971872803,-1.958037843,84.85494826,84.91550813,14279397.67,14271415,0.000266611,0.000266919,2.01E-07,2.01E-07,-2.464866226,-2.461931315
JVASP-859,Co,194,P6_3/mmc,hexagonal,3D,0.0086,na,-14.425685,-14.49675333,1378.667753,1388.771002,6674568.367,6659652.967,0.00864656,0.008719838,4.25E-07,4.25E-07,-9.084173033,-9.0939836
JVASP-857,Co,194,P6_3/mmc,hexagonal,3D,0.0066,na,-8.2170754,-8.152115933,452.2969299,444.6851935,6685228.133,6676409.933,0.002697552,0.002656172,4.28E-07,4.28E-07,-9.084173033,-9.0939836
JVASP-858,Co,194,P6_3/mmc,hexagonal,3D,0.0086,na,-8.643431133,-8.697185067,513.2953774,518.93166,6865306.467,6853585.6,0.003055761,0.003091217,4.07E-07,4.07E-07,-9.084173033,-9.0939836
JVASP-844,C,67,Cmme,orthorhombic,2D,0.108,na,-34.03119767,36.226387,640.1772903,507.962208,315738.5643,304445.2607,0.039746318,0.031899554,5.44E-05,5.44E-05,na,na
JVASP-843,C,67,Cmme,orthorhombic,2D,0.0983,0.0627,-35.86579233,37.01735367,659.864832,522.3567871,309689.2217,299110.706,0.041604629,0.032804833,5.64E-05,5.64E-05,na,na
JVASP-907,Kr,225,Fm-3m,cubic,3D,7.2601,10.8329,-127.21936,502.02475,874.6806707,1459.794807,54043.45633,5792.173433,0.3133159,0.823660714,0.528591818,0.528591818,na,na
JVASP-800,H2,2,P-1,triclinic,3D,3.3927,na,-163.14565,431.9678967,626.099523,673.0836131,23513.89067,3611.8735,0.292919156,0.395781155,1.199047511,1.199047511,na,na
JVASP-997,Sc,194,P6_3/mmc,hexagonal,3D,0.0429,na,-5.608620667,-5.941068,971.3913999,934.3454441,3374910.733,3376568.7,0.013075028,0.012828751,1.05E-06,1.05E-06,-1.572047,-1.943048333
JVASP-995,Sc,194,P6_3/mmc,hexagonal,3D,0.0002,na,-3.026896467,-3.370179733,242.3582949,226.505992,2787905.4,2788114.467,0.003936211,0.003794564,1.17E-06,1.17E-06,-1.572047,-1.943048333
JVASP-996,Sc,194,P6_3/mmc,hexagonal,3D,0.0543,0.0214,-5.432713667,-5.772117333,1005.800318,964.0851695,2971812.1,2973798.133,0.015011536,0.014647631,1.19E-06,1.19E-06,-1.572047,-1.943048333
JVASP-1004,Sm,194,P6_3/mmc,hexagonal,3D,0.0025,na,-20.08551967,-20.48313,1172.809235,1209.751199,2961994.967,2938073.1,0.017036611,0.017571781,9.59E-07,9.59E-07,-21.46667167,-21.87017767
JVASP-1005,Sm,194,P6_3/mmc,hexagonal,3D,0.0046,na,-24.47047733,-24.89219633,1890.970108,1935.87938,3254651.267,3223390.2,0.025531704,0.026132182,8.81E-07,8.81E-07,-21.46667167,-21.87017767
JVASP-1030,Ti,191,P6/mmm,hexagonal,3D,0.0014,na,-10.76202467,-10.58110667,1130.630137,1108.720172,2522833.8,2516731.533,0.016564248,0.016309881,1.14E-06,1.14E-06,-8.676588,-7.761345333
JVASP-1028,Ti,191,P6/mmm,hexagonal,3D,0.0006,na,-8.126125,-7.115194667,657.096302,615.4904282,1735553.833,1732352.5,0.011957418,0.011323029,1.77E-06,1.77E-06,-8.676588,-7.761345333
JVASP-1029,Ti,191,P6/mmm,hexagonal,3D,0.0006,0.0009,-10.05653667,-9.642446667,1018.442385,989.3393411,2093761.9,2089212,0.017025226,0.016621506,1.40E-06,1.40E-06,-8.676588,-7.761345333
JVASP-1057,Zn,194,P6_3/mmc,hexagonal,3D,0.008,na,6.443431633,6.475334733,811.3532154,813.4060956,17776329.67,17880049.67,0.002200653,0.00219069,1.67E-07,1.67E-07,2.700446347,2.63872404
JVASP-1055,Zn,194,P6_3/mmc,hexagonal,3D,0.0132,na,5.038227303,5.154541717,538.3230122,562.1337781,16507667.67,16588181,0.001463307,0.001520437,1.75E-07,1.75E-07,2.700446347,2.63872404
JVASP-1056,Zn,194,P6_3/mmc,hexagonal,3D,0.0027,0.0057,3.95490136,3.947888123,380.1771507,385.6823536,16283866,16346308.33,0.001001754,0.001010616,1.73E-07,1.73E-07,2.700446347,2.63872404
JVASP-811,Ac,194,P6_3/mmc,hexagonal,3D,0.0027,na,-25.80302067,-25.47599333,2096.819387,2060.401765,2807287.567,2776596.467,0.028028506,0.027606399,1.04E-06,1.04E-06,na,na
JVASP-809,Ac,194,P6_3/mmc,hexagonal,3D,0.0024,na,-25.87346867,-25.55677033,1865.422724,1857.073109,2304031.167,2278021.367,0.029708737,0.029649513,1.29E-06,1.29E-06,na,na
JVASP-810,Ac,194,P6_3/mmc,hexagonal,3D,0.0071,na,-26.42975433,-26.079492,1965.527431,1950.954944,2335846.2,2309347.167,0.030702146,0.030546222,1.24E-06,1.24E-06,na,na
JVASP-965,Pm,194,P6_3/mmc,hexagonal,3D,0.0032,na,-23.10255,-23.51808633,1574.202781,1614.00542,3022773.133,2994490.233,0.02274966,0.023320613,9.45E-07,9.45E-07,na,na
JVASP-966,Pm,194,P6_3/mmc,hexagonal,3D,0.005,na,-26.74437667,-27.174682,2223.077092,2271.898579,3220832.367,3186855.633,0.030039811,0.030677588,8.97E-07,8.97E-07,na,na
JVASP-835,Be,194,P6_3/mmc,hexagonal,3D,0.004,na,9.2941959,9.597829067,765.3440304,814.2046032,6631937.067,6715694.5,0.006210805,0.006396977,4.45E-07,4.45E-07,9.7175254,9.392545467
JVASP-833,Be,194,P6_3/mmc,hexagonal,3D,0.0071,na,9.995211867,10.2735194,768.6040084,819.9917581,6534457.933,6637533.367,0.006172839,0.006385357,4.53E-07,4.53E-07,9.7175254,9.392545467
JVASP-834,Be,194,P6_3/mmc,hexagonal,3D,0.0033,0.0258,9.82704,10.44089303,753.5048773,832.1855718,6102569.733,6207389.433,0.006267658,0.006672074,4.83E-07,4.83E-07,9.7175254,9.392545467
JVASP-982,Re,194,P6_3/mmc,hexagonal,3D,0.0024,na,2.5364913,2.5523818,151.5642348,155.8240285,12848031.67,12853300.33,0.000566244,0.000580555,2.33E-07,2.33E-07,3.010077923,3.119868867
JVASP-980,Re,194,P6_3/mmc,hexagonal,3D,0.0064,na,2.4079234,2.4653283,153.0966049,156.3513511,11415980.3,11419201.5,0.000627868,0.000642605,2.66E-07,2.66E-07,3.010077923,3.119868867
JVASP-981,Re,194,P6_3/mmc,hexagonal,3D,0.0038,na,2.422800633,2.447993733,176.4360065,180.5520475,12281176.97,12285281.77,0.000665817,0.000680553,2.44E-07,2.44E-07,3.010077923,3.119868867
JVASP-850,Cd,194,P6_3/mmc,hexagonal,3D,0.0045,na,6.2581864,6.295341133,587.0218789,575.1965877,13221075.67,13338885,0.001992686,0.001929432,2.16E-07,2.16E-07,4.529559543,4.677170917
JVASP-848,Cd,194,P6_3/mmc,hexagonal,3D,0.0041,na,-0.32259169,0.5534103,16.70021986,27.76289588,12440941,12447721.33,5.02E-05,8.72E-05,2.31E-07,2.31E-07,4.529559543,4.677170917
JVASP-849,Cd,194,P6_3/mmc,hexagonal,3D,0.0044,0.0035,-3.430819633,-2.823970433,167.6988599,122.4303438,13258415.67,13213702.67,0.000495531,0.000362302,2.14E-07,2.14E-07,4.529559543,4.677170917
JVASP-1048,Xe,2,P-1,triclinic,3D,5.2464,na,-93.0509,207.8471333,797.8616532,1463.968037,94939.10767,33616.614,0.197381739,0.498908793,0.334465961,0.334465961,na,na
JVASP-803,Hg,11,P2_1/m,monoclinic,3D,0.004,na,3.318772967,3.583863167,498.1531178,519.1013672,11358776.03,11422239.5,0.001820018,0.001876186,2.58E-07,2.58E-07,na,na
JVASP-795,Hg,63,Cmcm,orthorhombic,3D,0.0411,na,-197.0624267,295.7949733,4255.447953,4533.844575,118661.163,51691.283,0.951276907,1.584884135,0.534397761,0.534397761,na,na
JVASP-872,Er,194,P6_3/mmc,hexagonal,3D,0.0085,na,5.920773533,5.393150133,868.4079798,799.9594442,3284781.8,3292885.6,0.009776614,0.008973958,9.05E-07,9.05E-07,2.773595573,2.283636897
JVASP-873,Er,194,P6_3/mmc,hexagonal,3D,0.0033,0.001,-0.1987429,-0.602082567,16.57322448,9.961892175,4218005.667,4218231.033,0.000154513,0.000110551,7.66E-07,7.66E-07,2.773595573,2.283636897
JVASP-25043,Se,152,P3_121,trigonal,3D,0.8981,0.0635,-131.71012,284.02688,1330.99205,4219.106744,77483.90033,50836.855,0.367485115,1.570877339,0.323817091,0.323817091,-144.3318033,298.1561667
JVASP-25044,Fe,225,Fm-3m,cubic,3D,0.0019,0.0031,-25.504272,-25.545414,4051.818217,4051.497236,6229082.6,6208542.467,0.025841048,0.025849272,4.54E-07,4.54E-07,-16.927411,-17.005194
JVASP-25045,Yb,194,P6_3/mmc,hexagonal,3D,0.0008,na,29.90576027,34.40244187,1139.689227,1372.945127,982363.2667,1000740.76,0.040424613,0.04877207,3.83E-06,3.83E-06,20.56891667,23.590821
JVASP-25046,Tl,139,I4/mmm,tetragonal,3D,0.0018,0.0106,5.400674133,5.2047213,426.1488838,401.7259473,14536725.33,14589799.33,0.001240822,0.001172569,1.94E-07,1.94E-07,na,na
JVASP-25047,P,166,R-3m,trigonal,3D,0.0008,0.0068,-19.37752833,-14.60100823,1203.554664,913.6846259,1655650.333,1611642.133,0.022422303,0.017640611,1.83E-06,1.83E-06,-25.57029733,-18.55942267
JVASP-25048,Ge,96,P4_32_12,tetragonal,3D,0.1509,0.7914,-110.8924167,279.8973267,1856.472874,3684.396075,149929.0233,46725.73733,0.338007574,1.283268053,0.004645686,0.004645686,-169.9155033,268.6580667
JVASP-25049,Se,148,R-3,trigonal,3D,1.252,4.2214,-302.6293233,405.1007067,3130.681276,2093.195703,33969.28733,12749.19867,1.395303802,1.108664996,0.69975899,0.69975899,na,na
JVASP-25051,N2,198,P2_13,cubic,3D,7.163,9.3492,-342.3222,503.8837,1654.323308,413.8631666,14117.255,1630.0321,0.867433395,0.247151486,1.689881028,1.689881028,-398.77924,517.32494
JVASP-25052,La,225,Fm-3m,cubic,3D,0.0416,na,-0.417875017,-0.69262202,1.087505768,2.987373907,6227858.767,6227259.933,7.50E-06,2.06E-05,4.44E-07,4.44E-07,na,na
JVASP-25054,C,65,Cmmm,orthorhombic,3D,0.0348,na,-13.10819487,-12.6889499,382.8060729,331.9800532,1883327.163,1868269.487,0.013770998,0.012818822,2.15E-06,2.15E-06,na,na
JVASP-25055,C,139,I4/mmm,tetragonal,3D,2.8507,3.7268,-148.74853,185.1576633,1528.465579,1640.910164,68891.27667,47845.29067,0.497291542,0.621623726,0.401663056,0.401663056,na,na
JVASP-25056,Be,194,P6_3/mmc,hexagonal,3D,0.0007,0.0022,9.833720567,10.0900153,746.7180529,797.0842023,6181716.2,6275881.7,0.00626516,0.006468343,4.72E-07,4.72E-07,na,na
JVASP-25057,U,225,Fm-3m,cubic,3D,0.0008,0.0001,-9.0694045,-9.0153145,523.7384428,516.9850074,6367323.4,6360865.1,0.003237798,0.003194712,4.54E-07,4.54E-07,na,na
JVASP-25058,Ni,229,Im-3m,cubic,3D,0.0011,0.0166,-13.68748,-13.669462,1469.164917,1463.428162,7841940.7,7831925.8,0.007484535,0.007461374,3.68E-07,3.68E-07,na,na
JVASP-25060,Pr,63,Cmcm,orthorhombic,3D,0.004,na,-28.649747,-28.076463,1450.59837,1382.476223,2022258.953,2007778.903,0.029151873,0.027769959,2.57E-06,2.57E-06,na,na
JVASP-25061,Hf,229,Im-3m,cubic,3D,0.0051,0.0046,1.2264257,1.3674749,12.95105181,16.10987756,8610384.7,8614964.9,5.80E-05,7.23E-05,3.32E-07,3.32E-07,1.2101563,1.3484722
JVASP-25063,P,53,Pmna,orthorhombic,3D,0.8488,na,-84.70647567,64.79030667,368.1630188,587.9241015,52144.55696,54202.40433,0.096788706,0.161526583,148.4790817,148.4790817,na,na
JVASP-25064,Si,229,Im-3m,cubic,3D,0.0059,0.0032,-0.008960673,-0.029443049,0.00403684,0.043583709,50275952,50275758,3.29E-09,3.55E-08,5.58E-08,5.58E-08,na,na
JVASP-25065,Li,194,P6_3/mmc,hexagonal,3D,0.0034,0.0039,0.076765633,-0.025182767,40.17712251,39.66549413,8536555.5,8537229.767,0.000192701,0.000190361,3.29E-07,3.29E-07,0.1962891,0.098893233
JVASP-25066,Rb,70,Fddd,orthorhombic,3D,0.0084,0.0034,3.8527906,3.020817467,287.0365917,274.8272372,2321737.733,2334106.833,0.00534061,0.005080583,1.20E-06,1.20E-06,na,na
JVASP-25067,Tm,166,R-3m,trigonal,3D,0.0007,na,-6.0201841,-6.088925367,92.43440673,93.72745887,2527017.633,2521704.933,0.00148176,0.00150631,1.12E-06,1.12E-06,na,na
JVASP-25068,Lu,229,Im-3m,cubic,3D,0.0125,0.006,-17.934533,-18.14130933,1418.703208,1447.115587,4410739.467,4397096.167,0.01386496,0.01419209,6.30E-07,6.30E-07,na,na
JVASP-25069,Sn,225,Fm-3m,cubic,3D,0.0265,0.0063,-2.3559834,-2.2942025,119.9493705,113.5603971,21609938,21575626,0.000225507,0.000213899,1.31E-07,1.31E-07,na,na
JVASP-25070,Ni,194,P6_3/mmc,hexagonal,3D,0.0059,na,-3.0717073,-3.045123833,62.95861481,61.99683026,6693820.7,6692898.9,0.000373813,0.000368213,4.27E-07,4.27E-07,2.043213867,2.047607933
JVASP-25073,Sb,225,Fm-3m,cubic,3D,0.0008,0.0048,-2.173139833,-2.214685933,117.1713879,121.5552073,24811112,24782737.33,0.000193574,0.000201021,1.13E-07,1.13E-07,-2.2045158,-2.2785404