JID,Composition,Spg.numb.,Spg.symb.,Cryst.,Dimensionality,OPT SCF gap, MBJ gap,n-Seebeck,p-Seebeck,n-powerfact,p-powerfact,n-cond,p-cond,n-ZT,p-ZT,Avg.elec.mass,Avg.hole mass,n-mp-Seeb,p-mp-Seeb
JVASP-21847,Dy2CdPd2,127,P4/mbm,tetragonal,3D,0.0014,na,-5.160147773,-4.74273422,139.5861338,121.8412399,3109906.333,3105888.533,0.002180866,0.001917808,9.73E-07,9.73E-07,-6.199999733,-5.6477406
JVASP-21849,Ti5CuSb2,140,I4/mcm,tetragonal,3D,0.0039,na,-14.16978417,-14.82886907,167.8975125,182.7883564,880340.0867,877730.1667,0.00998736,0.010848529,3.28E-06,3.28E-06,na,na
JVASP-21853,PrNiGe3,65,Cmmm,orthorhombic,3D,0.0237,na,-1.865856053,-1.648672407,57.62683856,57.99860073,2703582.9,2704628,0.001427871,0.001368602,1.41E-06,1.41E-06,-5.972377713,-5.744800833
JVASP-21854,SrLiGe2,62,Pnma,orthorhombic,3D,0.0106,na,-3.5476761,-4.392000767,183.4674688,177.0787233,1840172.293,1838831.863,0.005931833,0.006052352,3.35E-06,3.35E-06,-0.768717833,-1.7497073
JVASP-21857,YZnGe,194,P6_3/mmc,hexagonal,3D,0.0137,na,-18.82143467,-17.20481333,407.5018976,375.8986877,1192169.703,1157626.397,0.012985278,0.011106548,3.46E-06,3.46E-06,-15.701129,-16.56399467
JVASP-21858,KRb2GaF6,225,Fm-3m,cubic,3D,6.3424,na,-145.13103,495.19199,967.9332434,481.0713178,45954.162,1961.833933,0.375053465,0.286406082,0.649200811,0.649200811,-129.56088,498.35867
JVASP-21860,Ag2Te2O7,74,Imma,orthorhombic,3D,0.0144,na,-58.47628467,-56.922644,1015.885184,928.8534183,291025.56,280753.1,0.098021453,0.090079397,1.36E-05,1.36E-05,-62.41303467,-60.672002
JVASP-21866,K3YF6,14,P2_1/c,monoclinic,3D,6.8561,na,-120.0148967,471.38977,805.2839118,104.7654428,57396.061,490.9936967,0.285437567,0.062719251,0.534716309,0.534716309,-142.3143933,504.3767467
JVASP-21867,Ho5Si3,193,P6_3/mcm,hexagonal,3D,0.0027,na,-44.480628,-44.88617367,1338.690073,1315.119514,664678.7033,645552.2533,0.073762221,0.073302836,4.41E-06,4.41E-06,-49.586566,-50.17824433
JVASP-21868,MgSi7Ir3,167,R-3c,trigonal,3D,0.004,na,18.114434,17.60306567,472.850962,456.3388323,1405110.9,1424221.533,0.013886532,0.013210358,1.98E-06,1.98E-06,na,na
JVASP-21869,ScU3Sb5,193,P6_3/mcm,hexagonal,3D,0.0036,na,52.81831667,52.763983,746.8708059,754.3905278,214194.5,215407.86,0.085015577,0.085119865,1.57E-05,1.57E-05,na,na
JVASP-21871,ErAsPd,62,Pnma,orthorhombic,3D,0.0183,na,-90.77557067,46.97124,798.3295531,596.5523136,114332.0513,136039.4143,0.128701105,0.068346027,6.45E-05,6.45E-05,-131.1841653,59.19549533
JVASP-21872,NaPd3O4,223,Pm-3n,cubic,3D,0.0017,na,9.8471069,8.648823,132.2159016,102.3960575,1363535.3,1368892.1,0.004494639,0.003469272,1.92E-06,1.92E-06,11.834091,10.547472
JVASP-21874,YB4Rh,55,Pbam,orthorhombic,3D,0.0021,na,-14.80450539,-14.56023527,437.9408867,429.3998633,1505065.383,1492415.833,0.012923823,0.012621101,2.10E-06,2.10E-06,-9.8750196,-9.6626025
JVASP-21875,ErB4Rh,55,Pbam,orthorhombic,3D,0.0098,na,-14.93902089,-14.6824849,447.5084969,435.9741444,1578432.9,1565356.5,0.01299558,0.012642687,1.99E-06,1.99E-06,-11.0039402,-10.81069973
JVASP-21876,TmB4Rh,55,Pbam,orthorhombic,3D,0.0058,na,-15.56168081,-15.3252438,476.7684959,464.1189241,1592799.933,1579166.333,0.013904484,0.013542388,1.96E-06,1.96E-06,na,na
JVASP-21878,KUCuS3,63,Cmcm,orthorhombic,3D,0.0011,na,-34.78568633,-35.69905567,557.9729019,570.9502925,335611.2623,334273.2747,0.060982832,0.063038477,3.11E-05,3.11E-05,-25.85131,-26.50900473
JVASP-21879,RbUAgS3,63,Cmcm,orthorhombic,3D,0.0009,na,-42.23589267,-43.38963367,215.8198419,222.2940452,167982.6913,167390.026,0.065495445,0.06677003,9.43E-05,9.43E-05,-23.85537023,-24.23389567
JVASP-21880,RbUCuS3,63,Cmcm,orthorhombic,3D,0.0005,na,-32.46480767,-33.49189,550.8890595,562.9764712,317326.6947,315983.5827,0.059729449,0.061691382,3.94E-05,3.94E-05,-32.62778933,-33.49367527
JVASP-21882,SmZnRh,62,Pnma,orthorhombic,3D,0.0023,na,2.85775586,2.491839718,373.039285,393.6652469,2764543.3,2767027,0.007358762,0.007714668,1.12E-06,1.12E-06,-0.119501267,-0.511079233
JVASP-21885,HoZnRh,62,Pnma,orthorhombic,3D,0.0007,na,1.798844767,1.772859133,118.7980952,133.5190357,3089049.667,3091828.4,0.002082031,0.002336093,1.00E-06,1.00E-06,-0.682584533,-0.838490133
JVASP-21887,Ta3B2,127,P4/mbm,tetragonal,3D,0.0069,na,11.01660587,11.09582893,601.4793031,605.949436,3895294.5,3926316.2,0.005380159,0.005424075,7.68E-07,7.68E-07,10.70793327,10.374516
JVASP-21888,Sc2InNi2,127,P4/mbm,tetragonal,3D,0.0034,na,-9.95955128,-9.387666593,1091.784959,1106.764799,2179111.933,2166075.733,0.012104445,0.012442286,1.69E-06,1.69E-06,-11.64132553,-10.91758687
JVASP-21889,Sr3Hg2,127,P4/mbm,tetragonal,3D,0.0006,na,-7.124682467,-5.438890933,66.8270696,54.087416,968828.74,963507.3133,0.001963392,0.001407743,3.94E-06,3.94E-06,-3.259583933,-2.9364552
JVASP-21893,HfSb,63,Cmcm,orthorhombic,3D,0.0471,na,-5.100387067,-4.362615933,234.4509701,191.4084425,754534.46,754426.58,0.011632342,0.009540276,4.16E-06,4.16E-06,-2.409696133,-3.020992767
JVASP-21894,NaCdSb,62,Pnma,orthorhombic,3D,0.0251,na,-87.44531933,98.360376,1168.29619,701.293511,157770.4697,53947.75533,0.19117645,0.216378154,0.000203257,0.000203257,-97.49440767,174.1917267
JVASP-21895,Ca(FeSb3)4,204,Im3,cubic,3D,0.4527,na,97.605506,95.607232,2513.099567,2471.78443,263791.66,270413.9567,0.382160545,0.367927107,9.16E-06,9.16E-06,83.564659,82.961292
JVASP-21896,HfSiRh,62,Pnma,orthorhombic,3D,0.0175,na,6.496215633,5.9019242,59.34301584,50.48023526,1346119.067,1348451.867,0.001982347,0.001661025,2.04E-06,2.04E-06,10.1483328,9.518824867
JVASP-21897,CeSi2Ir3,74,Imma,orthorhombic,3D,1.00E-04,na,94.85946267,94.23176433,4508.606901,4419.104233,733767.9067,750291.66,0.309559495,0.307725951,1.85E-05,1.85E-05,64.52540333,63.74180567
JVASP-21898,PrBPt4,191,P6/mmm,hexagonal,3D,0.0037,na,12.63927184,13.10372334,347.6050532,397.0316861,2913284.033,2929803.833,0.008367753,0.009525297,1.47E-06,1.47E-06,9.405619834,9.664506533
JVASP-21901,ErAl3Ni2,191,P6/mmm,hexagonal,3D,0.0017,na,-12.91813073,-12.60951402,614.1249348,590.0289504,3144330,3124651.533,0.009213015,0.008919768,9.54E-07,9.54E-07,-19.24061827,-19.35802648
JVASP-21903,ScZn2,194,P6_3/mmc,hexagonal,3D,0.0017,na,17.261587,17.47994567,627.2876542,644.0646962,2062216.433,2070709.567,0.011381184,0.011668154,1.44E-06,1.44E-06,14.742008,15.089326
JVASP-21904,CeAl4Co,51,Pmma,orthorhombic,3D,1.00E-04,na,-8.1810254,-9.061795967,42.81203477,51.6892868,623833.8833,622164,0.003217088,0.003880828,4.12E-06,4.12E-06,8.249836633,7.508082067
JVASP-21907,Tm4In(NiGe2)2,12,C2/m,monoclinic,3D,0.0028,na,24.29538033,24.23011667,540.9050613,552.0451939,968396.25,986995.7033,0.022035571,0.022342474,3.19E-06,3.19E-06,na,na
JVASP-21908,NdBO3,2,P-1,triclinic,3D,5.0247,na,-329.0651867,352.0702967,906.3836597,666.6881824,8634.365267,5135.348133,0.504568213,0.378750992,2.91091059,2.91091059,-363.60139,336.64814
JVASP-21909,Y2Ge2O7,96,P4_32_12,tetragonal,3D,3.9046,na,-116.1215533,466.0585567,782.6186487,205.1980569,62436.41267,1031.047927,0.264498344,0.122419115,0.548764519,0.548764519,-124.51926,473.2354067
JVASP-21913,Mg(ScGa)2,127,P4/mbm,tetragonal,3D,0.0023,na,-1.690479333,-1.814025667,1554.414148,1532.09804,2091003.767,2094247,0.026338424,0.025797773,1.45E-06,1.45E-06,0.797466,1.178441333
JVASP-21914,Sc5Si7Pt9,174,P-6,hexagonal,3D,0.0182,na,59.033116,52.07469133,1350.505831,1301.506641,303264.3933,329123.1,0.132277081,0.109241069,1.02E-05,1.02E-05,na,na
JVASP-21916,ErGePt,62,Pnma,orthorhombic,3D,0.0072,na,0.753305133,1.080707533,7.862855711,10.04182982,2874545.467,2875181.5,0.000113231,0.000152395,1.08E-06,1.08E-06,-0.982269967,-0.222183073
JVASP-21917,LuGePt,62,Pnma,orthorhombic,3D,0.0049,na,-2.544662913,-2.13337431,53.90088669,45.53370729,2703577.5,2700543,0.00121375,0.001014358,1.26E-06,1.26E-06,0.874407176,1.589868533
JVASP-21918,Sc2Si2Ru,12,C2/m,monoclinic,3D,0.0061,na,-13.59039177,-13.23685677,165.4599517,150.7372297,732426.8167,728495.8033,0.00930649,0.00862767,4.46E-06,4.46E-06,-15.62291353,-15.31232227
JVASP-21925,ScSi7Rh3,167,R-3c,trigonal,3D,0.0056,na,-16.16199967,-12.76426933,141.8166558,89.52752811,674572.2467,661608.0533,0.008606036,0.005183451,5.55E-06,5.55E-06,-20.61483533,-17.06701367
JVASP-21926,ScSi7Ir3,167,R-3c,trigonal,3D,0.0073,na,-56.82491767,10.67700397,366.4782207,40.90232874,114603.0377,103272.074,0.055266774,0.005518088,3.51E-05,3.51E-05,-54.580409,7.2336367
JVASP-21928,Rb3NaBe2F8,164,P-3m1,trigonal,3D,7.1831,na,-142.5480833,462.02073,991.9589005,194.0946361,49690.60967,941.1782167,0.377604558,0.116005023,0.693799285,0.693799285,-131.3273867,472.8199467
JVASP-21931,NaSiAu3,205,Pa3,cubic,3D,0.0033,na,-30.319697,-23.287166,570.8866323,323.8879102,621012.24,597257.29,0.027007009,0.015033337,5.49E-06,5.49E-06,-54.24907,-39.256992
JVASP-21934,Ge2Mo,62,Pnma,orthorhombic,3D,0.0038,na,-6.546998333,-2.240467667,954.6584601,949.1198339,371310.11,372154.6767,0.074089245,0.073061883,8.32E-06,8.32E-06,-5.709733,-0.935877
JVASP-21935,Li3PO4,31,Pmn2_1,orthorhombic,3D,6.3432,na,-169.8469233,431.8773167,1105.735777,457.7105671,38385.91167,2453.9561,0.459955166,0.268830355,0.838377535,0.838377535,-145.05761,449.52361
JVASP-21944,Rb2NaErF6,225,Fm-3m,cubic,3D,6.991,na,-155.68901,478.72857,1144.086507,820.3549441,47200.10333,3579.5061,0.445363041,0.482215575,0.741085074,0.741085074,-125.18024,491.6438
JVASP-21945,Cs2NaErF6,225,Fm-3m,cubic,3D,7.3922,na,-118.42094,542.3629,785.8874396,631.7802157,56040.67267,2147.7616,0.278172957,0.374418454,0.47883452,0.47883452,-117.20337,523.69185
JVASP-21948,IrF4,43,Fdd2,orthorhombic,3D,1.7909,na,107.989998,106.9317483,1581.013027,1571.720903,126423.8,127772.0067,0.381289574,0.374804675,2.08E-05,2.08E-05,52.39027237,51.66492447
JVASP-21949,B3Ru2,194,P6_3/mmc,hexagonal,3D,0.0019,na,3.541582033,4.010114567,72.74424179,94.94561884,4502273.367,4510302.9,0.000749688,0.00097162,6.56E-07,6.56E-07,5.85148788,5.96776164
JVASP-21950,HfB4Ir3,176,P6_3/m,hexagonal,3D,0.0194,na,1.637234133,-0.524057433,98.68954923,76.11974034,1685215.273,1687615.787,0.001574129,0.001599775,2.19E-06,2.19E-06,-2.471153967,-4.593047833
JVASP-21955,Cs2NaInF6,225,Fm-3m,cubic,3D,5.5869,na,-147.92685,538.51599,864.9563693,417.2908052,39527.576,1438.936433,0.353130146,0.248068622,0.655291913,0.655291913,-139.52392,540.58382
JVASP-21958,LiCaGe2,62,Pnma,orthorhombic,3D,0.011,na,7.548004833,6.2032409,199.3112637,209.1131526,1352661.077,1365211.387,0.003381377,0.003294244,2.71E-06,2.71E-06,9.128474867,8.048930133
JVASP-21959,Ba(ZnSn)2,129,P4/nmm,tetragonal,3D,0.0032,na,-8.285412,-11.90032067,4588.641011,5319.099425,3513279.56,3373185.67,0.066960825,0.073635024,1.47E-06,1.47E-06,-7.286936,-10.75642533
JVASP-21960,Cs2NaYF6,225,Fm-3m,cubic,3D,7.4238,na,-85.25858967,521.99504,466.4479114,575.3466253,64169.23533,2111.527867,0.154500217,0.340977055,0.293076316,0.293076316,-118.25379,521.10801
JVASP-21961,Rb2NaYF6,225,Fm-3m,cubic,3D,6.9937,na,-140.11958,473.73269,988.4327303,825.5578889,50344.20233,3678.585233,0.371758467,0.485230203,0.654135502,0.654135502,-127.41393,490.45328
JVASP-21962,Ba2SmReO6,225,Fm-3m,cubic,3D,0.0081,na,19.289626,18.491013,605.3510613,561.3931112,1626895.633,1641896.1,0.016092218,0.014939847,1.70E-06,1.70E-06,15.589261,14.591148
JVASP-21963,TbBa2ReO6,225,Fm-3m,cubic,3D,0.0131,na,20.27320267,19.467363,653.754189,608.3935732,1590632.167,1605352.333,0.017814854,0.016605386,1.73E-06,1.73E-06,10.683205,9.4526703
JVASP-21964,Ba2DyReO6,225,Fm-3m,cubic,2D,0.0144,na,20.533055,19.72174133,667.0319612,621.0600551,1582120.3,1596772.633,0.018292544,0.017061746,1.74E-06,1.74E-06,16.205288,15.225869
JVASP-21965,Ba2HoReO6,225,Fm-3m,cubic,3D,0.0151,na,20.78049667,19.972725,679.1840995,633.222679,1572807.833,1587383.333,0.018734798,0.017500004,1.75E-06,1.75E-06,13.833083,12.851122
JVASP-21966,Ba2TmReO6,225,Fm-3m,cubic,3D,0.0161,na,21.094948,20.307446,691.4774312,646.6799425,1553892.933,1568118.133,0.019266959,0.018054748,1.77E-06,1.77E-06,13.922471,12.962579
JVASP-21967,YbBa2ReO6,225,Fm-3m,cubic,3D,0.0053,na,-9.374255733,-11.285148,93.04829171,134.2066231,1058850.9,1053803,0.004359374,0.00632942,2.46E-06,2.46E-06,na,na
JVASP-21968,Li3AlN2,206,Ia3,cubic,3D,3.1875,na,-201.65006,387.13178,2448.722209,1281.811133,60220.28533,8552.762067,0.860752542,0.72832282,0.559741939,0.559741939,-183.54009,402.09458
JVASP-21969,Rb2ZrF6,164,P-3m1,trigonal,3D,6.8222,na,-442.5122867,522.0118133,340.3291492,260.9114369,1812.5405,952.75532,0.202387703,0.155494954,12.18708719,12.18708719,-462.2687267,528.4842967
JVASP-21970,Rb2HfF6,164,P-3m1,trigonal,3D,7.5284,na,-264.6139467,524.1663367,662.8641397,271.192967,9128.5623,982.6757633,0.35962849,0.161642734,1.49807814,1.49807814,-132.9881267,527.6585933
JVASP-21973,Nb5(SiCu)4,87,I4/m,tetragonal,3D,0.0009,na,5.6813559,5.4013583,307.0295331,282.0268122,972535.1267,977030.9667,0.010742828,0.009686268,2.97E-06,2.97E-06,na,na
JVASP-21974,Rb2ThF6,189,P-62m,hexagonal,3D,6.7545,na,-252.5333967,454.9463367,471.1025068,296.3754039,6891.593867,1400.887357,0.267089821,0.175692588,1.9426781,1.9426781,-301.94805,477.4792
JVASP-21976,Ti3NiS6,148,R-3,trigonal,3D,0.0008,na,21.159389,22.98917933,387.771275,453.2485281,814738.2433,827952.1133,0.015735688,0.018293771,3.73E-06,3.73E-06,18.56437833,19.935226
JVASP-21981,KRuO4,88,I4_1/a,tetragonal,3D,1.3789,na,-31.40974967,-32.03519833,110.8035166,119.8471914,207490.2067,206509.7533,0.028187558,0.029739595,3.66E-05,3.66E-05,5.368394,2.960907667
JVASP-21982,BaGeF6,166,R-3m,trigonal,3D,5.6922,na,-157.4065867,352.0007667,858.0312982,999.0353536,34635.657,8313.656633,0.366348595,0.55206587,0.686274678,0.686274678,na,na
JVASP-21986,Zr2CuS4,227,Fd-3m,cubic,3D,0.0301,na,-17.772886,-19.226363,604.5106421,698.0425627,1913762.5,1888372.333,0.014323897,0.016658676,1.42E-06,1.42E-06,-17.735153,-18.933435
JVASP-21990,K2HfF6,15,C2/c,monoclinic,3D,6.527,na,-331.1800033,416.39308,261.3883641,234.74802,1989.468493,1383.22956,0.154845257,0.140329311,22.2097388,22.2097388,-324.8254167,426.7025867
JVASP-21994,K2GeF6,186,P6_3mc,hexagonal,3D,6.0161,na,-153.71697,504.0627867,853.990913,315.6742434,36811.82767,1233.154863,0.357903623,0.188331802,0.687131031,0.687131031,-161.0072533,509.3834067
JVASP-21995,Ba(ZnSb)2,62,Pnma,orthorhombic,3D,0.0341,na,-75.628256,77.80719767,1306.101984,797.8732957,103136.3513,63285.96,0.204068463,0.222525843,0.000167783,0.000167783,-76.383888,72.780121
JVASP-22001,Dy2Si5Rh3,72,Ibam,orthorhombic,3D,0.0012,na,-10.94076123,-9.8526176,152.8672212,125.102811,1035713.823,1031396.387,0.005750936,0.004758506,2.94E-06,2.94E-06,-8.838891497,-8.102887167
JVASP-22007,Sr2InF7,14,P2_1/c,monoclinic,3D,5.076,na,-126.1794467,469.1507567,694.1994099,45.28231013,44294.70067,204.5902313,0.269695317,0.02713084,0.502023255,0.502023255,-149.7431567,469.3412067
JVASP-22008,YbBa2SbO6,225,Fm-3m,cubic,3D,4.0184,na,66.646001,64.435901,2121.113325,2019.77923,477546.5167,486461.07,0.219083937,0.203382834,4.96E-06,4.96E-06,na,na
JVASP-22015,Dy3MnB7,63,Cmcm,orthorhombic,3D,0.0055,na,-0.71825,1.016918333,150.0909567,158.2065407,521977.3267,520733.11,0.009420529,0.010174506,6.76E-06,6.76E-06,-4.931708367,-3.1550797
JVASP-22016,Y3B7W,63,Cmcm,orthorhombic,3D,0.0008,na,-11.680713,0.9548466,62.35615434,4.96937771,472043.4267,469121.7233,0.00320812,0.000225734,8.23E-06,8.23E-06,-16.49075367,-3.0611537
JVASP-22023,Tb3Al5O12,230,Ia-3d,cubic,3D,4.539,na,-190.78073,363.12445,1005.573955,438.8778707,27627.71733,3328.378433,0.479277514,0.259913458,1.073502656,1.073502656,-209.82317,382.97993
JVASP-22027,Mg3(PO4)2,14,P2_1/c,monoclinic,3D,5.3917,na,-123.5480967,469.2201067,818.7714258,514.7339209,54125.967,2658.788223,0.294439382,0.299899118,0.513059376,0.513059376,-116.7944533,449.32591
JVASP-22029,Ba2Re6S11,167,R-3c,trigonal,3D,1.283,na,-385.69057,265.50927,307.8196493,1279.226568,2076.329367,18258.597,0.182899235,0.679782965,8.184179836,8.184179836,-393.6863867,287.2745767
JVASP-22031,Tl6TeO12,148,R-3,trigonal,3D,0.0548,na,-55.92396067,-62.54440833,434.2254792,351.7433959,138431.8933,89272.474,0.087510695,0.078247949,6.11E-05,6.11E-05,-55.48526667,-60.82910767
JVASP-22032,Ca(AlS2)2,70,Fddd,orthorhombic,3D,3.4374,na,-159.90022,234.3891067,780.2352406,968.348888,29827.11067,17933.86567,0.346235618,0.507931164,0.865359296,0.865359296,na,na
JVASP-22033,Ca(GaS2)2,70,Fddd,orthorhombic,3D,2.7073,na,-266.20079,256.99448,1005.529375,975.5222326,16470.3574,15316.909,0.515444111,0.525988915,5.676011842,5.676011842,na,na
JVASP-22034,Sr(AlS2)2,70,Fddd,orthorhombic,3D,3.7066,na,-201.4816667,275.2700933,1103.741251,884.3042224,27775.64133,12192.42387,0.501810436,0.49147997,0.935939933,0.935939933,na,na
JVASP-22035,Sr(GaS2)2,70,Fddd,orthorhombic,3D,2.7269,na,-172.6588733,283.28765,665.3082182,870.5741796,24246.93577,12256.3379,0.31763709,0.48283208,1.901431072,1.901431072,na,na
JVASP-22039,Ca(BIr)2,70,Fddd,orthorhombic,3D,0.0007,na,25.58820277,25.926423,1822.126553,1964.23868,1187771.707,1225190.653,0.066031937,0.068552936,2.68E-06,2.68E-06,26.655389,27.12947867
JVASP-22042,KLi6IrO6,166,R-3m,trigonal,3D,2.799,na,22.895364,22.850586,100.5331756,100.0129347,184493.21,184834.6067,0.020461487,0.020199041,1.80E-05,1.80E-05,-6.700510143,-8.965539067
JVASP-22056,NaCa3IrO6,167,R-3c,trigonal,3D,2.9585,na,-14.04725033,-13.08481067,60.13266018,53.61635346,206130.88,204947.9567,0.008076809,0.007148482,1.69E-05,1.69E-05,7.594602837,7.437396863
JVASP-22061,Y(BIr)2,70,Fddd,orthorhombic,3D,0.0016,na,-7.899628233,-8.254668933,176.7707203,191.3182871,3229019.533,3220094.267,0.002828454,0.003071,9.91E-07,9.91E-07,-5.4831168,-5.909984933
JVASP-22062,Rb2LiGaF6,166,R-3m,trigonal,3D,6.4227,na,-156.3373867,492.4340267,850.1198815,353.7456199,34561.83667,1593.045973,0.367521283,0.209979634,0.732535427,0.732535427,-145.9055633,496.70384
JVASP-22075,Tm2Ge2O7,92,P4_12_12,tetragonal,3D,3.8191,na,-106.425683,473.44211,734.7190832,176.1905502,69388.708,868.94274,0.236774043,0.105127358,0.475976313,0.475976313,-114.8790433,479.5380533
JVASP-22085,Ca3MnN3,63,Cmcm,orthorhombic,3D,0.0076,na,-17.20989623,-17.9518782,954.235012,930.2913908,406110.7533,403247.4933,0.061627707,0.06025143,7.17E-06,7.17E-06,-26.4534487,-27.26267803
JVASP-22087,Ba(Cu2P)4,87,I4/m,tetragonal,3D,0.0033,na,12.79345267,13.07724833,372.5874234,382.5918969,2046989.367,2064927.533,0.006466562,0.006705188,1.73E-06,1.73E-06,11.25234567,11.441348
JVASP-22094,Mg3(Ni10P3)2,225,Fm-3m,cubic,3D,0.0028,na,7.5897999,16.94261867,21.98261914,110.3429778,381609.1533,384400.22,0.001193021,0.005994916,1.12E-05,1.12E-05,4.2590522,14.829715
JVASP-22104,Sc2MnSe4,227,Fd-3m,cubic,3D,0.0033,na,6.489655667,6.429392,14.38755691,14.17606253,341620.36,342938.1567,0.00140853,0.001400414,7.68E-06,7.68E-06,2.2522236,1.031986
JVASP-22111,Sr2CaIrO6,14,P2_1/c,monoclinic,3D,0.0049,na,24.80029333,26.08194107,207.2755827,230.1951549,284392.1467,285034.9933,0.02243139,0.0248481,1.46E-05,1.46E-05,23.815854,24.17656067
JVASP-22116,Pr(PdO2)2,88,I4_1/a,tetragonal,3D,0.0081,na,19.38540943,19.15796343,266.6558206,286.7995751,854187.88,850871.6367,0.042426904,0.044129573,1.68E-05,1.68E-05,20.034037,19.59168167
JVASP-22117,Nd(PdO2)2,88,I4_1/a,tetragonal,3D,0.0008,na,16.66036133,16.3541478,433.6045884,460.9869581,890858.22,885682.5367,0.050490002,0.052314009,1.74E-05,1.74E-05,21.15339267,20.72438367
JVASP-22120,Cu(IrS2)2,227,Fd-3m,cubic,3D,1.1486,na,60.06266,59.516348,3776.525484,3795.144463,1046847.2,1071410.167,0.146063279,0.143667458,2.73E-06,2.73E-06,55.54912,54.740711
JVASP-22122,Ca3Si2SnO9,14,P2_1/c,monoclinic,3D,3.6587,na,-135.2939133,402.2884133,624.5184544,137.7688037,33163.61567,881.7465533,0.274915621,0.082237862,0.573254221,0.573254221,-146.73982,393.66508
JVASP-22127,NaZr2ZnF11,12,C2/m,monoclinic,3D,5.843,na,-370.2957367,409.91356,637.9597514,624.4362439,4339.116394,4421.55273,0.371266752,0.363701823,226.7674889,226.7674889,-378.0541,484.9554933
JVASP-22137,NdPd3S4,223,Pm-3n,cubic,3D,0.0109,na,8.5208726,8.2744381,67.8574058,64.52333236,934607.17,942409.74,0.002749268,0.002648303,2.91E-06,2.91E-06,7.5069154,7.3226545
JVASP-22138,Tb4C5,55,Pbam,orthorhombic,3D,0.0073,na,-1.01816764,-1.698223617,42.71176329,44.52540717,1836954.567,1832831.667,0.000793931,0.000810772,1.64E-06,1.64E-06,-0.376240333,-0.8407046