JID,Composition,Spg.numb.,Spg.symb.,Cryst.,Dimensionality,OPT SCF gap, MBJ gap,n-Seebeck,p-Seebeck,n-powerfact,p-powerfact,n-cond,p-cond,n-ZT,p-ZT,Avg.elec.mass,Avg.hole mass,n-mp-Seeb,p-mp-Seeb
JVASP-1273,MgTe,186,P6_3mc,hexagonal,3D,2.5303,3.6692,-59.63558467,324.5953733,398.7625074,1848.563068,112519.1067,17553.81167,0.088147426,0.929240576,0.191833029,0.191833029,-55.716892,329.2018333
JVASP-1402,SmMg,221,Pm-3m,cubic,3D,0.0078,0.0122,-0.49686172,-0.47170114,0.584992103,0.526975925,2369621.2,2368410.2,9.77E-06,8.78E-06,1.18E-06,1.18E-06,na,na
JVASP-1465,ErTlS2,166,R-3m,trigonal,3D,1.5423,2.251,-274.9038167,123.6287533,2391.378897,886.6293245,31850.915,60567.818,1.060055595,0.286920551,0.930110525,0.930110525,-287.5999933,122.9783867
JVASP-2439,Nd2TeO2,139,I4/mmm,tetragonal,3D,1.7164,2.4404,-357.1202967,317.4718033,1413.033699,5000.003264,9765.358833,46085.848,0.760858906,1.855817871,4.555442099,4.555442099,-350.49682,307.6492867
JVASP-3015,Th(CuP)2,164,P-3m1,trigonal,3D,0.0966,0.4457,-193.4175467,170.51221,2958.359029,1476.479178,75456.75867,49584.442,0.777357454,0.398166144,0.001160759,0.001160759,-175.8228533,166.55119
JVASP-1765,LiMgAs,216,F-43m,cubic,3D,1.5207,na,-146.40172,312.06041,1817.526679,3504.49976,84798.552,35987.252,0.528713913,1.454083267,0.263310299,0.263310299,-158.62992,289.60208
JVASP-1513,TiCoSb,216,F-43m,cubic,3D,1.0706,1.0653,-408.43598,459.7249,2196.016929,3484.633905,13163.99467,16487.739,1.154605788,1.795153624,2.43189268,2.43189268,-392.16484,445.66152
JVASP-2637,Na2AsAu,63,Cmcm,orthorhombic,3D,0.0859,na,-124.56456,281.15883,2035.267066,3917.561965,124993.5693,47269.67167,0.373168535,1.312291678,0.474784874,0.474784874,-119.7431873,275.17375
JVASP-1231,BaTiO3,160,R3m,trigonal,3D,2.444,2.6508,-363.8832033,373.4159567,2171.135242,3017.198448,16467.087,21635.81467,1.092501053,1.512343047,2.066567991,2.066567991,-384.9228033,417.1878567
JVASP-1189,InSb,216,F-43m,cubic,3D,0.0894,0.7964,-127.50867,210.5262,2940.332307,3066.9113,180849.3633,69197.26233,0.454933411,0.834325697,0.00035663,0.00035663,-122.37156,199.50943
JVASP-2091,PbF4,139,I4/mmm,tetragonal,2D,1.8493,3.0198,-167.22248,512.3122667,977.6996045,743.1028752,34499.336,2833.327667,0.411916263,0.438163369,0.789494566,0.789494566,-175.41111,496.3226633
JVASP-1405,CaO,225,Fm-3m,cubic,3D,3.7424,5.29,-220.76187,353.66688,2437.999752,2216.775928,50024.81933,17722.82767,0.932966509,1.07397505,0.549023054,0.549023054,-233.37025,357.28559
JVASP-1474,LiCrS2,164,P-3m1,trigonal,3D,0.7112,0.0262,-244.89135,349.02925,1986.473413,1752.106594,32160.088,14359.98567,0.815227049,0.91972406,0.887667396,0.887667396,-278.9952033,352.4654333
JVASP-1591,HgF2,225,Fm-3m,cubic,3D,0.8617,3.4297,-80.77124167,546.54105,540.8124068,1339.445737,82895.91467,4484.144,0.15527912,0.770390331,0.286775754,0.286775754,-78.492763,598.77613
JVASP-2718,RbRuF6,166,R-3m,trigonal,3D,1.1564,2.9988,-414.1647567,408.9829967,192.754004,298.3236928,1123.5019,1797.735833,0.115218374,0.177625836,10.62020203,10.62020203,na,na
JVASP-1984,HgBr,139,I4/mmm,tetragonal,0D,1.8178,2.618,-202.6818967,317.5100267,2728.03143,2572.673416,67768.382,25018.99667,0.728192643,1.198459764,0.783201594,0.783201594,-207.61959,366.3549633
JVASP-2760,Ba(CdP)2,164,P-3m1,trigonal,3D,0.0559,1.3631,-137.16537,216.7235767,1310.968251,2321.888439,114930.3579,49497.343,0.290820304,0.8384479,1.22721484,1.22721484,-114.1095367,222.86797
JVASP-3996,WBr6,148,R-3,trigonal,0D,0.5224,1.1405,460.4693333,354.1351933,753.4450766,1557.30235,3626.915,12707.78133,0.436181786,0.832641174,0.021274107,0.021274107,-379.6833733,444.7602533
JVASP-3042,NaSrAs,189,P-62m,hexagonal,3D,1.0586,1.8989,-66.34089167,204.7696333,492.3907623,1248.274717,91199.14633,25681.13473,0.11060426,0.443482888,0.163227278,0.163227278,-49.80532667,209.5686667
JVASP-2394,Na2HgO2,139,I4/mmm,tetragonal,3D,1.8186,2.9149,-302.9226567,441.6538933,2962.317607,1506.849154,31626.59267,7424.380633,1.351134412,0.851850451,0.829345011,0.829345011,-199.7178667,441.0662967
JVASP-1312,BP,216,F-43m,cubic,3D,1.515,1.914,-251.58437,201.31044,4539.445455,2858.369034,71719.20867,70531.91933,1.567056481,0.844753546,0.360298899,0.360298899,-233.85935,228.17713
JVASP-1251,YbSe,225,Fm-3m,cubic,3D,2.0524,3.496,-192.61524,226.94963,2676.580443,2032.924417,72143.799,39469.559,0.897044932,0.831719392,0.37862862,0.37862862,-185.0539,236.04031
JVASP-2277,Cd(GaSe2)2,82,I-4,tetragonal,3D,1.3178,2.7232,-52.252507,336.7357167,306.3416109,2332.710639,111435.0267,20506.91767,0.071474376,1.144077194,0.158512781,0.158512781,-52.33066567,359.5976533
JVASP-2008,HoHSe,187,P-6m2,hexagonal,3D,1.6982,2.6291,-84.694201,95.126454,685.471448,747.7155297,100665.451,85193.278,0.159634995,0.19315247,0.331295185,0.331295185,-87.016038,86.2644
JVASP-3639,PrBr3,176,P6_3/m,hexagonal,3D,3.5256,4.5252,-295.10217,415.7819733,1080.423453,1137.349138,11115.80527,6553.8227,0.543882824,0.648820927,1.522427766,1.522427766,-315.46535,410.1702867
JVASP-2448,GaAgSe2,122,I-42d,tetragonal,3D,0.747,1.5603,-33.00141233,255.4304467,153.3284582,1991.401237,141309.57,30829.41667,0.030753336,0.84723321,0.013795489,0.013795489,-38.42436567,260.7268867
JVASP-1531,RbDyS2,166,R-3m,trigonal,3D,2.3219,na,-267.5157833,279.2563567,3279.283926,1664.765549,45329.70767,21297.0171,1.327145625,0.792070237,0.653028755,0.653028755,-239.7791733,281.2967267
JVASP-3495,InCuTe2,122,I-42d,tetragonal,3D,0.5796,1.0443,-93.08491633,228.4136767,1158.167282,2248.502456,132128.4767,43099.53633,0.196556181,0.689132864,0.000398286,0.000398286,-107.4888407,234.24307
JVASP-2020,NiCl2,166,R-3m,trigonal,2D,0.781,0.0027,-386.7608633,418.2555167,1865.30466,1754.310188,12436.348,10488.75597,1.02243759,0.945965058,1.684577596,1.684577596,-384.94733,432.4054167
JVASP-2628,Sr3SbN,221,Pm-3m,cubic,3D,0.1886,na,-137.13858,180.05271,1321.010772,1695.677938,70240.414,52305.101,0.431610024,0.623419397,0.047128003,0.047128003,-126.37126,175.88703
JVASP-1399,Li2Te,225,Fm-3m,cubic,3D,2.6048,3.0448,-158.26979,313.38076,1899.862322,3101.047183,75844.84667,31576.48,0.590109417,1.34939223,0.296454291,0.296454291,-170.08544,303.44467
JVASP-1981,ZrCl2,160,R3m,trigonal,2D,0.8656,0.9616,-327.0201067,304.14538,2737.754045,2550.481961,25593.50033,34979.88003,1.311806893,1.052729929,0.910684134,0.910684134,-330.2806067,291.8879333
JVASP-3258,Ho2SeO2,164,P-3m1,trigonal,3D,2.318,3.6311,-202.9623433,262.6785233,1721.286088,2276.614508,42157.223,30337.33533,0.682533613,0.96062167,0.678040789,0.678040789,-215.5149267,259.89785
JVASP-2919,Fe(SiP)4,1,P1,triclinic,3D,1.1011,1.082,-300.60802,389.3063433,2761.0362,1621.920216,33427.603,10793.6312,1.171372281,0.879162826,1.222655367,1.222655367,-278.5733833,399.4480933
JVASP-1245,CdF2,225,Fm-3m,cubic,3D,3.0626,6.3799,-101.85841,424.07522,686.8337439,1897.580467,66199.977,10551.505,0.222540189,1.034835369,0.391210333,0.391210333,-100.99431,484.94567
JVASP-3696,BaLiH3,221,Pm-3m,cubic,3D,2.4438,3.537,-210.12374,176.08724,2520.983304,1996.360811,57097.846,64384.787,0.87269812,0.68008985,0.50364132,0.50364132,-180.70771,167.44092
JVASP-2982,NdZnPO,166,R-3m,trigonal,3D,1.2188,na,-283.43306,197.65631,2829.804639,2018.441942,34597.63167,44842.9784,1.221749677,0.759617076,0.959558446,0.959558446,-290.35155,200.2490567
JVASP-2823,K2CuP,63,Cmcm,orthorhombic,3D,1.2482,1.7767,-128.99671,350.32648,994.7280363,823.4182039,55446.55133,6200.051367,0.301787131,0.470533069,0.60501834,0.60501834,-146.74563,330.7205467
JVASP-1567,KErO2,166,R-3m,trigonal,3D,4.1137,5.9921,-250.63165,443.1434067,2501.771074,1449.94236,39828.36233,7513.015533,1.030783528,0.79852246,0.695264773,0.695264773,-222.78219,443.0768967
JVASP-2724,AlCuSe2,122,I-42d,tetragonal,3D,1.0689,2.5087,-48.47944233,317.4766067,280.2259197,1971.071707,119190.48,19642.82,0.06291843,0.941030239,0.145078599,0.145078599,-46.04816833,302.3048633
JVASP-3480,SrCuSeF,129,P4/nmm,tetragonal,3D,1.4786,na,-86.881146,325.48132,535.3597675,2008.726974,70675.14967,20943.79336,0.167147782,0.962450703,0.323936739,0.323936739,-77.80552367,319.3329967
JVASP-1768,ScAgSe2,164,P-3m1,trigonal,3D,0.7653,1.2041,-275.3733233,209.9719267,2741.081672,3034.062976,35250.866,68577.96433,1.121667783,0.829506996,0.774048989,0.774048989,-273.0610733,236.6289333
JVASP-2244,Sb2Te2Se,166,R-3m,trigonal,2D,0.1593,na,-170.9878833,185.4644733,3824.93616,4149.633474,132817.4683,120194.4233,0.690882457,0.922641444,0.002142581,0.002142581,-143.8513667,229.52936
JVASP-2163,RhF3,167,R-3c,trigonal,3D,0.9274,0.7998,-462.15705,408.7764133,1575.438179,810.2927122,7375.714667,4847.888233,0.899758342,0.460838309,3.582317129,3.582317129,-483.0186933,410.4647
JVASP-3312,Na2CuAs,63,Cmcm,orthorhombic,3D,0.8118,1.5981,-187.1885167,244.5437933,2389.584194,2109.002881,64389.04167,30161.543,0.710255536,0.8170915,0.653690996,0.653690996,-182.9525733,254.2114033
JVASP-4152,NdO2,12,C2/m,monoclinic,3D,3.6042,4.7971,-367.3909733,399.68302,1230.666976,1532.453578,9427.6904,9815.498267,0.665205168,0.830525148,4.430219294,4.430219294,-345.11785,394.43711
JVASP-3855,RhCl3,12,C2/m,monoclinic,2D,1.4811,1.6656,-410.4268167,407.2284467,902.3515716,841.8493924,5338.390633,5150.6658,0.51968243,0.4879385,3.380291449,3.380291449,-409.30932,396.4488767
JVASP-4164,Tl3VO4,44,Imm2,orthorhombic,1D,2.5643,2.7008,-377.8858967,260.525,1607.02599,1782.701197,11612.7811,25036.62433,0.882363848,0.793043313,3.730873545,3.730873545,-370.7798133,274.5972867
JVASP-2427,GaAgS2,122,I-42d,tetragonal,3D,0.9368,2.3601,-53.44971267,311.3327767,309.9891666,2132.856992,108572.4033,22055.871,0.074497583,1.035409462,0.167122203,0.167122203,-52.98555867,319.1206367
JVASP-1315,BaS,225,Fm-3m,cubic,3D,2.1484,3.2256,-189.68909,373.41128,2366.918455,4039.29411,65780.715,28968.807,0.818077457,1.725868025,0.432270239,0.432270239,-204.89037,372.03402
JVASP-3537,TeRhCl,12,C2/m,monoclinic,2D,0.7228,0.8957,-310.0594733,329.1229833,3628.306891,1743.75765,38604.786,17131.1166,1.531305464,0.868879164,0.67565404,0.67565404,-287.4734567,341.6188833
JVASP-2688,LiNbS2,194,P6_3/mmc,hexagonal,3D,0.787,0.6655,-271.3763567,127.5594933,3460.278214,738.3502812,47510.038,46038.33267,1.330220106,0.272601395,0.607129647,0.607129647,-284.6960133,137.7622667
JVASP-2280,TlGaTe2,140,I4/mcm,tetragonal,1D,0.1064,0.9291,-119.5553167,197.5281333,2087.165783,1305.613431,146176.86,38896.58733,0.416493551,0.51298954,0.066840235,0.066840235,-183.9639,225.02126
JVASP-3459,In2HgSe4,82,I-4,tetragonal,3D,0.624,1.6386,-41.397246,283.2892833,213.5856824,2405.691108,124732.3767,30057.75133,0.04616221,1.051809939,0.109064253,0.109064253,-45.48123267,308.7680933
JVASP-1660,RbSmS2,166,R-3m,trigonal,3D,2.2614,3.5601,-270.1099067,291.9446267,3204.167953,1614.749704,43377.514,19011.26577,1.314890767,0.780915654,0.682358024,0.682358024,-242.47535,298.6969633
JVASP-1942,KI,225,Fm-3m,cubic,3D,4.0924,6.3837,-87.783474,379.51039,580.8497001,1443.202876,75376.89467,10020.28433,0.176425055,0.783457557,0.324906174,0.324906174,-94.057451,399.77998
JVASP-1846,LiErSe2,166,R-3m,trigonal,3D,1.6486,2.2504,-213.8131267,270.6045,2758.774745,2141.175178,60219.66733,33030.99667,0.972764814,0.931557593,0.438905909,0.438905909,-212.4150667,273.4610567
JVASP-3507,Zn(InSe2)2,82,I-4,tetragonal,3D,0.9316,2.2235,-46.99056667,302.2677533,248.2141273,2838.680203,111208.2933,31116.11167,0.057695474,1.257966326,0.133284921,0.133284921,-48.947188,318.0019933
JVASP-2841,Rb2PtSe2,71,Immm,orthorhombic,3D,1.0444,1.4645,-264.8056567,324.10722,3180.670896,2153.572098,37103.254,16770.3924,1.259499586,1.023876368,3.499873277,3.499873277,-250.4772167,344.3089867
JVASP-1363,TmN,225,Fm-3m,cubic,3D,0.3432,1.2559,-148.04719,213.41239,2528.35647,2330.221741,115355.41,51163.23433,0.634291116,0.783959883,0.009140953,0.009140953,-132.94439,209.87773
JVASP-2577,RbAuO2,63,Cmcm,orthorhombic,2D,1.5656,1.9785,-317.74625,393.2718667,1028.998208,1679.099513,8748.596967,9308.18462,0.527184364,0.829998607,2.985859573,2.985859573,-339.48403,371.3985733
JVASP-1960,Ca2NCl,166,R-3m,trigonal,3D,2.3123,3.2951,-251.3595633,494.50169,2767.392178,785.0755869,43782.32767,3110.466567,1.124818159,0.45895567,0.661023609,0.661023609,-245.7594667,497.97966
JVASP-1519,ScCuS2,156,P3m1,trigonal,3D,0.9259,1.037,-315.5348433,275.49053,2607.296196,1940.962685,25706.17133,25616.88133,1.19509394,0.887976841,1.001796556,1.001796556,-298.8872233,270.75921
JVASP-2349,KLiTe,129,P4/nmm,tetragonal,3D,2.6485,3.8887,-75.33330367,348.7013967,434.0663425,1692.404184,77113.661,15979.69223,0.127994083,0.85917348,0.247287094,0.247287094,-72.748124,369.34218
JVASP-1954,AgCl,225,Fm-3m,cubic,3D,0.9252,2.8783,-77.55757733,423.3348,546.9351786,6460.846123,90925.854,36051.34367,0.148227656,2.94489043,0.294115339,0.294115339,-76.587914,426.43911
JVASP-3402,Sm3InN,221,Pm-3m,cubic,3D,0.0359,0.0322,-18.830973,-19.202017,713.7456066,729.6205372,2012787.5,1978806.6,0.014271849,0.014805703,1.40E-06,1.40E-06,na,na
JVASP-3600,ZrIN,59,Pmmn,orthorhombic,2D,1.3327,1.5797,-147.7803733,265.94277,1157.866237,3164.520454,52849.3352,37616.35467,0.386327562,1.034215485,1348.824115,1348.824115,-131.1410167,279.3632333
JVASP-2802,Tl3SbS3,160,R3m,trigonal,3D,1.4495,2.0852,-293.7507333,363.9998767,2949.019935,1976.193725,33536.77733,15204.05733,1.282981886,1.027753638,0.764993802,0.764993802,-265.84643,386.5469533
JVASP-2826,NaLiS,129,P4/nmm,tetragonal,3D,3.3402,4.7808,-90.32870767,367.8346,556.3716373,2309.956914,68430.74267,15744.066,0.175764807,1.174784909,0.322323415,0.322323415,-88.682407,359.1374367
JVASP-1339,K2Te,225,Fm-3m,cubic,3D,2.1866,3.9507,-87.04576533,556.41938,599.6216414,517.37962,79137.441,1671.109167,0.17712305,0.307675594,0.337583913,0.337583913,-85.381222,557.01061
JVASP-1816,KHoS2,166,R-3m,trigonal,3D,2.3563,3.2984,-273.29496,272.7534933,3353.011919,1701.042565,44316.88267,22558.07727,1.365980126,0.803492246,0.67479894,0.67479894,-244.4742467,264.61554
JVASP-3972,Pd(SCl3)2,2,P-1,triclinic,2D,1.4517,na,-352.3048433,377.27538,1457.565659,945.5291571,11423.47113,7000.424557,0.753244355,0.52822333,6.26780099,6.26780099,-342.1607433,380.32749
JVASP-3504,NaInTe2,140,I4/mcm,tetragonal,3D,0.8397,1.5531,-111.2076133,288.98045,870.2910296,2496.159159,70863.509,31082.80167,0.234095817,1.093460833,0.283693667,0.283693667,-111.5625833,275.6630533
JVASP-2682,K2PtS2,71,Immm,orthorhombic,3D,1.3242,1.7588,-279.3178433,382.91869,3299.535228,2683.044464,35028.306,17470.05213,1.326092215,1.253186627,10.61382825,10.61382825,-266.2955267,386.66621
JVASP-2526,KMgSb,129,P4/nmm,tetragonal,3D,1.4026,1.9673,-141.10793,295.6188033,1620.091901,3102.759925,83147.37267,36755.45819,0.433602666,1.304022245,0.655183648,0.655183648,-130.6083667,323.9297167
JVASP-1840,LiDySe2,166,R-3m,trigonal,3D,1.5601,1.4473,-212.54759,252.9591367,2725.204786,1941.075004,60274.29833,35534.148,0.96057838,0.820772302,0.43304831,0.43304831,-214.20227,260.3103967
JVASP-1738,Rb2Se,225,Fm-3m,cubic,3D,1.8419,3.7863,-97.80252933,465.05032,736.5766474,983.8899286,77004.79567,4549.3214,0.224340296,0.577414064,0.414029463,0.414029463,-88.366206,483.67358
JVASP-1882,ErN,225,Fm-3m,cubic,3D,0.3378,na,-146.86849,212.92029,2524.786564,2334.770166,117048.92,51500.333,0.62473153,0.750693468,0.005352209,0.005352209,-128.7766,198.28443
JVASP-3993,Sc2CCl2,164,P-3m1,trigonal,2D,0.8596,1.4169,-265.21996,315.9376067,3280.632832,1521.350585,40308.1748,13100.44767,1.263016674,0.752574778,1.376611472,1.376611472,-262.3038133,341.5663233
JVASP-2613,K2AgSb,63,Cmcm,orthorhombic,3D,1.2667,1.9601,-154.82465,380.78564,1241.670782,1626.448515,55151.52667,11013.85257,0.372055906,0.882931349,0.670814113,0.670814113,-154.7188367,349.4319967
JVASP-3078,TiS3,11,P2_1/m,monoclinic,2D,0.0583,3.3714,-201.3344733,248.8958833,1289.539593,1480.411357,26202.03393,23805.06787,0.47955954,0.589943543,0.088168735,0.088168735,-178.8218,180.576547
JVASP-2005,NaH,225,Fm-3m,cubic,3D,4.8448,7.2051,-232.6814567,448.44867,3304.835867,3257.940505,61041.66167,16200.099,1.16627615,1.700841389,0.451860088,0.451860088,-248.75968,439.13922
JVASP-3651,BrF3,36,Cmc2_1,orthorhombic,1D,2.0809,4.411,-333.2291133,271.57512,927.5645977,948.6447716,9093.3745,13156.0317,0.505343415,0.501549601,2.977085019,2.977085019,-338.38709,312.6458867
JVASP-1441,ScNiSb,216,F-43m,cubic,3D,0.0882,0.0151,-280.64903,224.43385,2931.644339,2694.145424,37220.67033,53486.51667,0.995737377,0.851624015,0.008144017,0.008144017,-275.0567,227.17211
JVASP-1486,KPrO2,166,R-3m,trigonal,3D,3.6539,5.1974,-269.6081667,516.4577,2744.928902,1122.893683,37789.02933,4154.941533,1.176193283,0.6507639,0.805244625,0.805244625,-257.7113733,515.0673633
JVASP-2979,SrTiN2,129,P4/nmm,tetragonal,3D,0.8181,1.2078,-134.2783333,317.2252633,1301.183067,3806.617766,73724.84031,37466.668,0.368582394,1.547809899,169.0980584,169.0980584,-113.7935933,326.4861067
JVASP-3045,K2AgP,63,Cmcm,orthorhombic,3D,1.26,2.1085,-125.01004,381.37719,1057.315122,1131.390057,62232.06467,7331.9496,0.293430845,0.633202237,0.643255655,0.643255655,-153.02436,349.0796133
JVASP-1171,Na2S,225,Fm-3m,cubic,3D,2.5899,4.9691,-86.766576,485.99442,597.5581837,2090.768767,79373.454,8852.041433,0.176539599,1.167508671,0.338558792,0.338558792,-82.789945,476.31692
JVASP-3531,Na4I2O,139,I4/mmm,tetragonal,3D,2.4878,3.7058,-83.06086833,455.19422,568.5131466,633.5397066,82405.90067,3095.887767,0.164313774,0.370569694,0.31008339,0.31008339,-79.61748033,458.9100233
JVASP-3135,TbSF,129,P4/nmm,tetragonal,3D,1.3535,2.5689,-119.3434767,272.4823,924.7476527,2183.588489,65617.534,32330.29573,0.29469068,0.90560396,0.615886597,0.615886597,-111.9254533,284.7342167
JVASP-2616,RbScO2,194,P6_3/mmc,hexagonal,3D,3.5378,4.5912,-231.55765,432.6247267,2287.483684,1335.751564,43537.303,6903.5777,0.918892442,0.75005139,0.605285964,0.605285964,-243.7657167,441.5751467
JVASP-1993,KBr,225,Fm-3m,cubic,3D,4.6017,7.4805,-105.12551,417.11304,718.0979508,1311.675094,64978.167,7539.0867,0.236394605,0.729929555,0.432882308,0.432882308,-104.04589,433.69919
JVASP-2011,KH,225,Fm-3m,cubic,3D,3.5372,5.9254,-256.49414,446.97992,3039.86631,2629.873485,46206.12933,13163.11967,1.203658418,1.415457744,0.627580228,0.627580228,-239.74081,464.76613
JVASP-2850,Na3SbSe4,217,I-43m,cubic,3D,1.057,2.0591,-140.49783,306.22319,731.2140522,1889.871605,37042.927,20153.763,0.297187288,0.922709421,0.535134537,0.535134537,-147.19416,312.84925
JVASP-2181,As2Os,58,Pnnm,orthorhombic,3D,0.0322,na,-268.3660133,339.1622367,4209.802958,3155.918355,57756.23533,27713.48133,1.392048096,1.400694838,0.366495704,0.366495704,-287.1737167,333.1450667
JVASP-3162,KSbS2,15,C2/c,monoclinic,3D,1.4295,2.4469,-272.1135467,220.3297067,3665.356443,1165.211008,45202.65667,22943.993,1.267307268,0.486402143,1.896312343,1.896312343,-270.8229367,250.99027
JVASP-3675,Re(AgCl3)2,148,R-3,trigonal,2D,0.0219,na,-305.5406933,343.8990267,1112.547,1079.387279,12256.1201,9123.782733,0.616158198,0.604352912,2.067261825,2.067261825,-312.0490433,350.5727067
JVASP-2757,Ba(MgP)2,164,P-3m1,trigonal,3D,1.1513,1.6748,-234.33553,276.7899767,3335.190975,2520.890823,55370.738,32953.231,1.107920797,1.063159028,0.795662892,0.795662892,-224.95588,285.17582
JVASP-2250,TbAgTe2,113,P-42_1m,tetragonal,3D,0.8687,1.2973,-175.6195967,212.1025833,1360.785404,2036.587687,41827.785,45651.126,0.483325872,0.731521603,0.666753699,0.666753699,-205.75721,221.1691033
JVASP-1864,NaNiO2,12,C2/m,monoclinic,3D,0.0036,0.006,-69.91814567,-60.346113,1389.111317,1155.085241,139898.1867,138662.2683,0.212592345,0.176059392,4.72E-05,4.72E-05,na,na
JVASP-3177,Mg(BeN)2,164,P-3m1,trigonal,3D,4.406,5.5002,-258.8378667,301.8526933,2847.694085,1750.598657,43425.027,18801.7432,1.127275277,0.849595434,0.845604608,0.845604608,-262.6520833,301.2364
JVASP-1411,LiN3,12,C2/m,monoclinic,3D,3.713,2.0955,-367.8193567,387.4007667,2199.030025,1406.315259,18021.975,10311.4026,0.995435787,0.7358499,2.891809554,2.891809554,-315.3018267,421.07335
JVASP-2074,RbAu,221,Pm-3m,cubic,3D,0.266,0.9575,-153.08321,64.598222,2288.277679,367.3035688,97645.808,88020.538,0.627348668,0.101124243,0.258399972,0.258399972,-159.05844,69.176389