JID,Composition,Spg.numb.,Spg.symb.,Cryst.,Dimensionality,OPT SCF gap, MBJ gap,n-Seebeck,p-Seebeck,n-powerfact,p-powerfact,n-cond,p-cond,n-ZT,p-ZT,Avg.elec.mass,Avg.hole mass,n-mp-Seeb,p-mp-Seeb
JVASP-22958,KSmF4,62,Pnma,orthorhombic,3D,7.5503,9.3509,-211.6800667,466.3477333,917.1721541,95.78275413,14628.28799,425.2668693,0.447686421,0.057317912,117.7958828,117.7958828,-128.95151,482.56028
JVASP-22959,Yb2SiO5,15,C2/c,monoclinic,3D,4.6619,0.0068,26.75986207,30.8725955,132.8648895,139.3705522,25336.72767,25486.927,0.053506047,0.05599046,0.000263552,0.000263552,0.242213333,-0.3571654
JVASP-22960,Tm2SiO5,14,P2_1/c,monoclinic,3D,4.8918,6.8804,-118.2102233,384.9130233,645.058972,1081.720559,46045.506,9293.438465,0.250693694,0.601589872,0.471257262,0.471257262,-119.79654,393.8232367
JVASP-22961,Zr5Ge3,193,P6_3/mcm,hexagonal,3D,0.0018,na,-7.456419575,-7.936413933,397.0130082,340.4504192,1440394.247,1430335.8,0.00586014,0.005068323,2.25E-06,2.25E-06,-9.614563767,-10.3180301
JVASP-22963,SrTa2O6,62,Pnma,orthorhombic,3D,3.3306,na,-244.5514033,425.8620733,1597.722772,329.5317816,20155.17577,1874.027637,0.655908442,0.194156405,2.290512521,2.290512521,-244.1642833,421.7558967
JVASP-22965,Sm2ReO5,85,P4/n,tetragonal,3D,0.8365,na,-207.7061167,346.8655867,831.1145833,755.29158,19513.76517,5498.393867,0.40738284,0.42688708,1.164325916,1.164325916,-212.91279,358.0169733
JVASP-22966,HfGePd,11,P2_1/m,monoclinic,3D,0.0012,na,16.69492577,16.81595823,623.4498004,676.0751332,558270.2633,573714.32,0.022371389,0.02460031,6.72E-06,6.72E-06,15.5236229,15.87522083
JVASP-22967,Pr2SiTeO4,57,Pbcm,orthorhombic,3D,2.1458,2.6487,-308.7264933,245.5040633,1201.484072,2527.398732,15422.5001,27263.29017,0.640235626,0.935796158,3.853722069,3.853722069,-297.9359533,262.7108333
JVASP-22968,Y5Ge3,193,P6_3/mcm,hexagonal,3D,0.0033,na,-53.931932,-55.47782267,1563.156795,1585.422727,525157.45,506369.1067,0.116639513,0.120381258,5.48E-06,5.48E-06,-53.50746,-54.758789
JVASP-22969,Nd3RuO7,63,Cmcm,orthorhombic,3D,0.0325,na,-1.9199311,-1.976688167,359.9017689,362.5346664,393644.7567,390835.35,0.030099251,0.030887266,1.68E-05,1.68E-05,31.588798,31.51560133
JVASP-22970,CaGeO3,2,P-1,triclinic,3D,3.5508,na,-138.07983,409.2577467,976.0320464,199.1932006,51184.489,1291.867497,0.366815367,0.11839467,0.638398802,0.638398802,-114.07732,418.2571967
JVASP-22972,NaMg4(AsO4)3,122,I-42d,tetragonal,3D,3.4843,5.1542,-126.6063467,483.5661333,844.4803378,454.0182042,52280.33567,1984.657793,0.310007883,0.2695613,0.544890076,0.544890076,-107.6131367,489.86567
JVASP-22973,K2Li3GaO4,14,P2_1/c,monoclinic,3D,3.8326,na,-120.4204533,408.0632533,759.9019988,581.1153721,53371.97767,3923.2105,0.277371515,0.337934986,0.509312267,0.509312267,-123.7052767,406.2437367
JVASP-22974,Sr5As3O12F,176,P6_3/m,hexagonal,3D,4.1721,6.0101,-121.3991967,413.2330533,769.9526903,160.4851441,52130.13833,986.0211933,0.285062621,0.095732479,0.519704033,0.519704033,-121.5529533,422.04229
JVASP-22976,CaTiGeO5,14,P2_1/c,monoclinic,3D,2.7834,3.2425,-227.2017033,417.66122,863.7011519,1085.637036,15094.48,6539.893917,0.419303321,0.605245067,1.277440474,1.277440474,-273.2419067,399.07958
JVASP-22977,K2Hg3(GeS4)2,41,Aea2,orthorhombic,3D,1.2652,2.3442,-99.90584733,189.5638033,550.740626,835.0049971,57840.713,20930.46367,0.189167515,0.395011525,0.389265578,0.389265578,-103.3875423,245.4362367
JVASP-22979,Hf2CuGe4,63,Cmcm,orthorhombic,3D,0.002,na,7.814825533,7.413231,296.540523,292.5316653,2135563.287,2154546.877,0.004350963,0.004305344,1.69E-06,1.69E-06,10.69030547,11.2767939
JVASP-22980,Nb2Tl4S11,2,P-1,triclinic,2D,1.1452,na,-300.0093067,296.8769667,261.9731884,422.9409827,2970.5417,5178.228533,0.15457054,0.246977133,6.97596592,6.97596592,-321.9938233,309.8702833
JVASP-22989,Tb3KF10,225,Fm-3m,cubic,3D,6.9311,na,-190.17289,496.6183,857.1046097,184.9578404,23699.36,749.9413633,0.41972007,0.110647353,1.030581611,1.030581611,-168.48717,478.9475
JVASP-22990,Mg4Nb2O9,165,P-3c1,trigonal,3D,3.4434,na,-267.2182633,399.3686333,748.8328838,869.6440154,10752.39463,5291.146767,0.399684177,0.506783367,1.697446173,1.697446173,-271.6470167,408.3292633
JVASP-23021,K3PS4,62,Pnma,orthorhombic,3D,2.8942,na,-290.3086467,287.4238933,678.9916021,297.3032815,8581.706967,3501.004033,0.379585019,0.174367195,3.651314803,3.651314803,-193.6737367,331.2829033
JVASP-23033,BaCaAlF7,13,P2/c,monoclinic,3D,7.4425,9.6064,-61.828146,374.1057133,456.2451966,36.21763125,39415.1504,261.6637025,0.169013538,0.02170633,10.11592887,10.11592887,-122.2000133,394.81422
JVASP-23035,Sm3Ti3(SeO4)2,11,P2_1/m,monoclinic,3D,0.0039,na,-89.63870367,-97.47699233,271.9147324,317.9950624,102672.5459,101291.4288,0.094220495,0.111463604,0.000647534,0.000647534,na,na
JVASP-23037,Na6Ge2Se7,15,C2/c,monoclinic,3D,1.5506,2.6546,-91.83568467,346.7379333,288.2595581,318.5962342,34019.49367,2743.478167,0.127375525,0.187931384,0.293391054,0.293391054,-77.767323,381.7296667
JVASP-23038,K2Cd3S4,62,Pnma,orthorhombic,3D,1.8385,na,-61.148641,330.9100533,341.6013871,492.4512576,90750.374,4163.623733,0.092030537,0.287702022,0.200011469,0.200011469,-78.290677,347.3614633
JVASP-23039,Na2Si2S5,63,Cmcm,orthorhombic,3D,3.5194,na,-275.5216967,367.45286,973.1779629,922.2924146,12453.92633,6883.871933,0.532022246,0.532444186,1.482544449,1.482544449,-276.4754167,383.8736967
JVASP-23042,Sr2Ge2Se5,14,P2_1/c,monoclinic,3D,1.0367,na,-126.9124733,292.5159033,861.0816404,807.1340319,51018.82733,9623.236533,0.26374509,0.441645405,0.404076512,0.404076512,-156.9219167,287.0798367
JVASP-23044,Sr(Ni2Sn)2,140,I4/mcm,tetragonal,3D,0.0117,na,-14.51663633,-14.98829667,379.6053216,395.5847446,1759299.667,1749473.6,0.00887039,0.00941729,1.59E-06,1.59E-06,-17.77059367,-18.37582533
JVASP-23045,K4SnSe4,62,Pnma,orthorhombic,3D,1.6233,na,-103.911597,341.9811833,568.2180276,304.8893241,42828.82133,2739.374933,0.217374053,0.180451888,0.44067504,0.44067504,-104.232375,373.5694633
JVASP-23046,Zr2Co4P3,189,P-62m,hexagonal,3D,0.0079,0.0054,-63.80770093,-66.0207702,376.4966194,389.1403144,86312.02233,84629.80933,0.134455117,0.138855843,2.76E-05,2.76E-05,na,na
JVASP-23047,YbSr3RhO6,167,R-3c,trigonal,3D,2.2938,2.2626,46.259647,43.926412,332.7048572,303.7614753,157596.9733,159321.8867,0.08881596,0.080061794,1.45E-05,1.45E-05,33.54645767,31.966251
JVASP-23048,Zr4Co7Ge6,229,Im-3m,cubic,3D,0.0053,na,-73.82578,-77.159454,2617.849342,2761.569221,480317.6667,463850.0867,0.26906399,0.29080912,5.33E-06,5.33E-06,na,na
JVASP-23050,Na5SiAs3,14,P2_1/c,monoclinic,3D,0.9197,na,-175.797,338.4255167,1432.523126,708.5522102,42635.933,6566.0378,0.544542102,0.408416315,0.133941324,0.133941324,-145.09814,333.8534833
JVASP-23052,LiGaSiO4,146,R3,trigonal,3D,4.2116,na,-139.6516367,388.2521767,991.4004594,365.2983419,50829.973,2312.8989,0.371142371,0.216195374,0.640019528,0.640019528,-124.1559867,412.7361133
JVASP-23053,K3TaS4,62,Pnma,orthorhombic,3D,2.7304,na,-270.5748433,298.7536033,390.6338595,383.8584011,4964.3296,4734.097833,0.227014725,0.224730359,2.554875583,2.554875583,-275.9815467,306.8972733
JVASP-23065,ScSnPt,190,P-62c,hexagonal,3D,0.0162,na,20.237737,20.359101,262.5767887,274.9039355,562696.43,562161.4133,0.027437817,0.027951403,8.18E-06,8.18E-06,25.59436033,24.414939
JVASP-23084,Mn2MoP12,15,C2/c,monoclinic,3D,0.0204,na,-125.7877067,-92.01912867,1033.720855,392.8504204,68710.97233,50755.54733,0.240752888,0.113499748,0.000466392,0.000466392,-131.6905267,-83.830232
JVASP-23086,Mg2Pd,227,Fd-3m,cubic,3D,0.0025,na,1.996716033,3.249928833,12.53097552,33.28822442,3143057.1,3151685.9,0.000145217,0.000387405,9.43E-07,9.43E-07,-3.1365136,-2.7395053
JVASP-23090,Sr3ZnRhO6,167,R-3c,trigonal,3D,2.5437,na,36.49617433,34.287327,312.6718355,275.6970661,221371.39,223485.7267,0.056346075,0.049305593,1.87E-05,1.87E-05,na,na
JVASP-23095,KAlTe2,15,C2/c,monoclinic,3D,2.076,na,-172.18702,315.74912,1738.830819,951.1356327,45374.583,11840.4828,0.593228187,0.489390918,0.72520849,0.72520849,-167.6510833,308.7218433
JVASP-23113,Lu(FeGe)6,191,P6/mmm,hexagonal,3D,0.0021,na,-0.1363768,-0.296869433,90.7806121,91.55708888,1708344.8,1707553.8,0.001531154,0.001514497,2.07E-06,2.07E-06,na,na
JVASP-23114,KEr3F10,225,Fm-3m,cubic,3D,7.1072,na,-182.39945,494.05588,866.2332735,210.5291061,26036.81233,862.5017833,0.411983435,0.125888208,0.958520618,0.958520618,-156.6786,477.66952
JVASP-23116,TbGa3Os,221,Pm-3m,cubic,3D,0.0163,na,-4.6839555,-5.2722891,52.94730847,66.91021156,2413339.2,2407099.1,0.000917089,0.001163839,1.14E-06,1.14E-06,-13.884185,-13.940439
JVASP-23132,Nd2SiTeO4,57,Pbcm,orthorhombic,3D,2.1081,na,-285.3583633,249.59803,1200.613245,2620.702482,18829.75217,27779.39397,0.613658441,0.966415988,3.339239879,3.339239879,-284.9830767,270.2895433
JVASP-23144,In3Rh,136,P4_2/mnm,tetragonal,3D,0.0074,na,-14.29617883,-15.7656317,411.0040198,465.0610606,1109323.333,1094521.007,0.016503954,0.019539976,2.55E-06,2.55E-06,-11.23572783,-13.23166033
JVASP-23148,Ba3Sn5,63,Cmcm,orthorhombic,3D,0.0252,na,-17.75234267,-19.68443533,293.4390613,355.1225438,686315.5967,673290.5767,0.017364595,0.02216927,4.15E-06,4.15E-06,-18.392108,-20.72426257
JVASP-23170,Co3O4,227,Fd-3m,cubic,3D,0.022,na,23.364513,24.957804,388.4957561,444.6987635,711660.42,713925.9733,0.013715747,0.01570098,6.21E-06,6.21E-06,-70.512209,-16.44158
JVASP-23183,Sr5Cr3O12F,176,P6_3/m,hexagonal,3D,0.9089,na,-12.1261749,-13.485598,5.255903832,6.368399225,29811.36933,29774.681,0.002510118,0.003053923,8.49E-05,8.49E-05,4.168294667,2.837513
JVASP-23185,Y2Be2Fe(SiO5)2,14,P2_1/c,monoclinic,3D,0.72,0.2093,-385.91872,414.0899833,32.00945601,80.84542396,209.0704,479.83327,0.01919335,0.0484294,69.92601992,69.92601992,56.97950267,38.801646
JVASP-23187,CoSe2O5,60,Pbcn,orthorhombic,3D,0.0066,na,10.733973,9.189664667,311.9819936,287.6046611,236345.0867,238388.0767,0.06013073,0.055782238,1.34E-05,1.34E-05,-14.04779757,-14.85865993
JVASP-23188,HoNiO3,62,Pnma,orthorhombic,3D,0.008,na,-26.90083993,-27.42452633,835.9529964,853.7324543,1061881.993,1055214.323,0.049102337,0.050573069,2.97E-06,2.97E-06,-28.794606,-29.24031033
JVASP-23189,Na2SrV4O12,125,P4/nbm,tetragonal,3D,2.8115,na,-450.6912633,336.5449833,45.44694093,493.3446716,225.49706,4051.458333,0.0272577,0.284214941,73.11982428,73.11982428,-442.9525067,338.22689
JVASP-23190,Ba2FeMoO6,225,Fm-3m,cubic,3D,0.0045,na,-300.7833267,316.9665533,1720.125028,986.1725415,19013.081,9815.807467,0.68858923,0.336618251,0.03484008,0.03484008,-272.21015,-4.3468282
JVASP-23192,HoMnO3,185,P6_3cm,hexagonal,3D,0.0076,na,-0.047252333,0.069605667,821.5964362,810.3396922,399726.5667,398565.6333,0.088627955,0.088159191,1.06E-05,1.06E-05,-80.18373727,-43.01242
JVASP-23195,K2SrV4O12,125,P4/nbm,tetragonal,3D,2.8306,na,-427.5920933,438.2442667,100.7247487,316.0371411,607.90122,1656.141833,0.060262391,0.186904817,57.64391471,57.64391471,-414.42367,442.62272
JVASP-23205,ErMnO3,185,P6_3cm,hexagonal,3D,0.0114,na,13.37399767,13.606809,729.5447642,738.5373536,365525.9833,365534.69,0.079334091,0.080765083,1.04E-05,1.04E-05,-78.9150246,-45.057045
JVASP-23208,Ba2SmMoO6,225,Fm-3m,cubic,3D,0.0024,0.0052,-14.63926067,-17.81443267,112.0388769,164.6957356,522793.67,518965.22,0.012275141,0.018216792,4.70E-06,4.70E-06,na,na
JVASP-23209,DyNiO3,62,Pnma,orthorhombic,3D,0.0127,na,-27.27278233,-27.72383633,887.6345715,903.2180617,1085734.8,1078533.117,0.047435767,0.048698586,2.85E-06,2.85E-06,-6.589392167,-7.124668467
JVASP-23216,Ba3CoSb2O9,194,P6_3/mmc,hexagonal,3D,0.0259,na,-18.16717097,-21.8153417,257.7268723,298.8015791,394603.9033,387653.7967,0.021553148,0.025697453,7.96E-06,7.96E-06,3.379297,0.724933333
JVASP-23225,YMnO3,185,P6_3cm,hexagonal,3D,0.0009,na,13.37774967,13.54944033,923.1087065,931.5977503,380841,380576.9933,0.104010922,0.105740777,1.09E-05,1.09E-05,-82.21812567,-41.71192933
JVASP-23227,NdMn2O5,55,Pbam,orthorhombic,3D,0.0033,na,-61.82769293,-62.5996933,497.1598666,491.576421,140747.6503,140043.7807,0.137632385,0.136000013,3.66E-05,3.66E-05,-413.18253,267.14636
JVASP-23231,TiCoO3,148,R-3,trigonal,3D,0.0052,0.0092,-11.29523793,-12.21252387,148.2214661,166.5684082,938225.9367,936469.0667,0.008499455,0.009589612,2.71E-06,2.71E-06,-17.24179933,-18.22257533
JVASP-23235,Ba5Nd8Mn4O21,87,I4/m,tetragonal,3D,0.0038,na,58.4966962,60.38774,103.1026675,106.604759,24528.78033,24694.03467,0.043769553,0.045244254,0.000155905,0.000155905,-140.05627,321.1738967
JVASP-23239,Ba5Sm8Mn4O21,87,I4/m,tetragonal,3D,0.009,na,65.17058133,67.08278467,112.6229159,117.2994797,23685.50367,23863.78067,0.048126113,0.050004286,0.000169996,0.000169996,-144.5753433,315.1648667
JVASP-23245,Mn2Al4Si5O18,66,Cccm,orthorhombic,3D,1.1224,na,67.51203433,64.820583,136.1662854,128.9174074,21598.90537,21996.0468,0.06536291,0.061510113,0.00023896,0.00023896,-216.0734233,354.4793667
JVASP-23292,Ti2Ni(PO5)2,14,P2_1/c,monoclinic,3D,0.0298,na,-287.7923667,-7.441876667,248.7343872,63.30275866,2489.764557,1186.678327,0.13861802,0.03452495,0.185271738,0.185271738,-322.5982633,432.6208033
JVASP-23296,Ca3Cr2(SiO4)3,230,Ia-3d,cubic,3D,1.5134,na,32.589363,31.857675,115.7116583,111.0741798,108949.5333,109442.2367,0.03596508,0.03458047,2.43E-05,2.43E-05,-421.96775,343.02284
JVASP-23297,Sr2Co(SeO3)3,2,P-1,triclinic,3D,0.3487,na,7.355534567,5.900263667,1.853874802,1.411768494,16741.56,16825.5375,0.000919016,0.000698975,0.000312894,0.000312894,na,na
JVASP-23304,LiVAsO5,62,Pnma,orthorhombic,3D,0.0023,na,-29.55053133,-29.86936733,697.2809493,741.9906608,250801.6007,247099.1833,0.057614096,0.062291802,9.58E-05,9.58E-05,na,na
JVASP-23306,Sr3ScNiO6,167,R-3c,trigonal,3D,2.1043,0.0064,-95.87183967,-98.71757733,1170.862044,1211.930537,124407.47,121632.2167,0.404309269,0.423392949,1.92E-05,1.92E-05,-20.32359867,-24.06663567
JVASP-23312,LiNi2P3O10,11,P2_1/m,monoclinic,3D,0.0202,na,4.308228,2.767086,1014.987605,1049.078339,185696.4947,182503.3936,0.140628376,0.144035646,0.000177328,0.000177328,-339.0007733,396.7708167
JVASP-23319,Ba3NiSb2O9,194,P6_3/mmc,hexagonal,3D,0.0004,na,1.044576667,-0.161541333,118.1453412,160.5797281,508816.16,500077.6427,0.011866475,0.014903293,1.62E-05,1.62E-05,-0.146939333,-1.098604667
JVASP-23321,Yb2Be2Si2NiO10,14,P2_1/c,monoclinic,3D,0.691,na,3.737716623,190.0859633,2.567674676,60.76250644,1346.71814,1638.31069,0.001327683,0.032505056,0.133303248,0.133303248,-101.1776603,228.9683333
JVASP-23323,MnSe2O5,60,Pbcn,orthorhombic,3D,0.0536,na,67.29444067,66.312946,367.8422168,355.891731,89081.34533,90079.27267,0.112323989,0.108292811,5.01E-05,5.01E-05,-172.77435,321.6941467
JVASP-23326,Hf(FeGe)6,191,P6/mmm,hexagonal,3D,0.0014,na,4.18367585,4.14253744,29.730913,27.68171982,1448451.043,1449156.507,0.001237954,0.001157951,2.23E-06,2.23E-06,-5.299626637,-5.027215089
JVASP-23327,YSiRh,62,Pnma,orthorhombic,3D,0.0016,na,-4.865315467,-5.368143633,88.51407351,102.9051048,1654804.697,1652600.61,0.002935928,0.003513301,1.97E-06,1.97E-06,-1.034610727,-1.362338996
JVASP-23328,DyCoSi,62,Pnma,orthorhombic,3D,0.0128,0.0045,-13.59857147,-14.41758777,345.6149325,345.8993524,678039.1233,672577.6767,0.013307846,0.013429499,4.31E-06,4.31E-06,-16.32423707,-16.641122
JVASP-23329,Tb2Ge2Ru,12,C2/m,monoclinic,3D,0.0008,na,-12.6283338,-12.15992557,184.4129422,170.0446885,861536.1633,856717.7967,0.008552553,0.00794025,3.46E-06,3.46E-06,-10.51201787,-9.880513933
JVASP-23330,Mn(BW)2,127,P4/mbm,tetragonal,3D,0.0028,0.0023,8.203197633,8.263750667,226.8671062,229.0989812,3351075.533,3354406.1,0.002682897,0.002707422,8.62E-07,8.62E-07,4.291938767,4.287480367
JVASP-23331,Zr(Fe2Si)2,136,P4_2/mnm,tetragonal,3D,0.0026,na,15.1325428,15.76880016,521.8485987,541.3351679,839630.18,841275.9467,0.019561225,0.020268933,3.96E-06,3.96E-06,15.98276113,16.57105633
JVASP-23332,Ba2Nb5O9,123,P4/mmm,tetragonal,3D,0.0449,na,-7.195884867,-7.5313527,270.8525836,290.0684413,1870598.523,1847581.32,0.004347609,0.00471276,3.12E-06,3.12E-06,na,na
JVASP-23334,USiIr,62,Pnma,orthorhombic,3D,0.001,0.0056,21.68806573,21.14177973,152.5907253,146.7298722,233436.2033,234101.3067,0.026902556,0.025933816,1.36E-05,1.36E-05,13.99758873,14.1289749
JVASP-23336,ErGeRu,62,Pnma,orthorhombic,3D,0.0077,na,19.33442697,18.40775683,528.9616375,496.8540629,1449329.017,1457763.73,0.021874663,0.020640421,2.44E-06,2.44E-06,29.95102433,28.77805867
JVASP-23337,Na(FeSb3)4,204,Im3,cubic,3D,0.2213,na,64.564797,63.17565833,1624.435762,1576.451126,389682.5533,394985.3233,0.182407793,0.173878437,6.40E-06,6.40E-06,na,na
JVASP-23339,UTeS,62,Pnma,orthorhombic,3D,0.0008,0.0009,25.44592117,25.3331442,179.9622212,179.7751556,132197.1597,132536.5783,0.035143343,0.035050561,2.30E-05,2.30E-05,6.093657733,6.074928067
JVASP-23340,DySiRu,62,Pnma,orthorhombic,3D,0.0019,0.0053,17.3552894,16.85684433,553.8180695,554.0803001,1472827.983,1480604.543,0.019396173,0.019282913,2.15E-06,2.15E-06,20.7683169,20.1655876
JVASP-23342,Pu2C3,220,I-43d,cubic,3D,0.0155,na,15.211503,15.199219,20.08952765,20.07543143,86821.13733,86900.51333,0.005229434,0.005224663,3.29E-05,3.29E-05,20.934123,20.780803
JVASP-23343,Co2Si,62,Pnma,orthorhombic,3D,0,na,-19.01211667,-18.496536,876.1629838,857.4621956,872554.2767,870601.2967,0.030500501,0.029950699,3.55E-06,3.55E-06,-21.73827963,-22.05659977
JVASP-23344,Zr2InNi2,127,P4/mbm,tetragonal,3D,0.0039,na,-2.9629369,-3.1010188,50.25411744,54.15868083,2074132.2,2070107.733,0.00057259,0.000618627,1.86E-06,1.86E-06,1.6718362,1.6337404
JVASP-23347,Sr4In2N,141,I4_1/amd,tetragonal,3D,0.0043,na,34.57080433,32.85487,737.198519,698.8238149,733199.76,752007.3667,0.046617116,0.042187062,6.34E-06,6.34E-06,43.79668667,41.56458467
JVASP-23348,LuNiGe,62,Pnma,orthorhombic,3D,0.009,na,5.796704327,5.824164057,98.76357903,98.10819794,2343368.867,2347562.3,0.002266486,0.002240845,1.39E-06,1.39E-06,5.20926277,5.401586513
JVASP-23349,USeS,62,Pnma,orthorhombic,3D,0.0009,na,6.117822467,6.276423633,48.63528954,49.81509279,212961.6033,213092.8133,0.006439527,0.006596194,1.45E-05,1.45E-05,-2.680126667,-2.659554833
JVASP-23350,CeZnGe,194,P6_3/mmc,hexagonal,3D,0.0006,na,69.63338833,68.78507367,2785.927004,2758.791116,380561.9633,385903.8933,0.299404567,0.294822222,1.03E-05,1.03E-05,37.58719867,37.39173633
JVASP-23351,Na2MgAlF7,46,Ima2,orthorhombic,3D,7.0655,11.15,-163.66291,468.5499567,1210.579641,214.127158,45823.72,1060.54867,0.480284106,0.127748206,0.789811292,0.789811292,-136.38106,488.3829167
JVASP-23353,Dy2Ti3Si4,92,P4_12_12,tetragonal,3D,0.0026,na,-15.5785393,-15.00118657,130.0498353,117.4932774,316327.62,314595.75,0.010060494,0.009091272,1.03E-05,1.03E-05,-20.173104,-19.30772133
JVASP-23354,Co2CuGe2,51,Pmma,orthorhombic,3D,0.0044,na,-16.91132533,-16.99338333,1483.775611,1515.344083,2902648.733,2901071.233,0.036864061,0.037691014,1.43E-06,1.43E-06,-3.891015081,-3.84120597
JVASP-23355,LuMnSi,62,Pnma,orthorhombic,3D,0.0097,0.0076,-24.7483695,-24.85520833,596.7032531,594.0980357,822819.8567,819282.84,0.031063254,0.031413684,3.60E-06,3.60E-06,-4.2187546,-4.414942967
JVASP-23357,DyGeRu,62,Pnma,orthorhombic,3D,0.0021,na,16.716122,16.0002402,452.1802127,433.2306387,1450098.273,1458292.663,0.015824907,0.015172916,2.35E-06,2.35E-06,21.16910633,20.40930763
JVASP-23358,Pa3Sb4,220,I-43d,cubic,3D,0.0018,na,21.235839,20.182228,257.8597238,234.1202112,571800.6767,574778.7333,0.022287556,0.020249611,4.59E-06,4.59E-06,8.7831948,9.5384688
JVASP-23360,Nd(NiSn)2,129,P4/nmm,tetragonal,3D,0.0035,na,-10.351377,-10.72933007,524.0348336,554.24681,3889552.2,3873163.967,0.006890728,0.007313068,7.35E-07,7.35E-07,-11.43916027,-11.7840116
JVASP-23361,SrSnPt,62,Pnma,orthorhombic,3D,0.0012,na,-2.348972767,-2.791404867,59.50261893,54.2366734,1946377.233,1942620.133,0.001393152,0.001313602,1.47E-06,1.47E-06,-0.7923926,-1.836244777
JVASP-23364,ErGeRh,62,Pnma,orthorhombic,3D,0.0037,na,-0.372368533,-1.1287371,18.13655361,23.03422549,1854101.533,1854936.933,0.000368769,0.000542592,1.70E-06,1.70E-06,-2.246332547,-2.671124917
JVASP-23366,U(Ni2P)2,136,P4_2/mnm,tetragonal,3D,0.0034,na,-0.940270533,-0.739835333,101.1861024,96.96238186,603267.56,602987.2467,0.004910653,0.004633657,5.64E-06,5.64E-06,9.307999067,9.461135333