JID,Composition,Spg.numb.,Spg.symb.,Cryst.,Dimensionality,OPT SCF gap, MBJ gap,n-Seebeck,p-Seebeck,n-powerfact,p-powerfact,n-cond,p-cond,n-ZT,p-ZT,Avg.elec.mass,Avg.hole mass,n-mp-Seeb,p-mp-Seeb
JVASP-22143,Sr3CdIrO6,167,R-3c,trigonal,3D,1.5603,na,42.38557767,40.184956,323.2958876,290.8654065,218509.0033,220681.14,0.071396017,0.064186631,1.45E-05,1.45E-05,57.10613667,55.07572233
JVASP-22147,Rb2NaHoF6,87,I4/m,tetragonal,3D,6.9947,na,-153.6015833,493.53319,1130.917784,561.6678714,47940.38867,2305.855133,0.43937271,0.332456554,0.763616173,0.763616173,-126.0165967,503.5786033
JVASP-22148,Nd(BOs)4,86,P4_2/n,tetragonal,3D,0.0193,na,18.03154817,16.75038977,212.6010834,189.1112706,515046.0567,516920.9967,0.018854877,0.016567272,4.96E-06,4.96E-06,18.7915488,17.69059073
JVASP-22149,Sm3IrO7,63,Cmcm,orthorhombic,3D,0.0114,na,-9.203328967,-9.429808167,218.3014169,215.7050828,348315.01,346723.3067,0.021178123,0.020858265,1.51E-05,1.51E-05,4.821696847,4.757365177
JVASP-22176,K2LiAlF6,166,R-3m,trigonal,3D,7.8498,na,-158.89817,461.4146967,1087.711745,390.4368309,43297.958,1969.836607,0.438135004,0.230013944,0.788870504,0.788870504,-136.9450067,471.9272133
JVASP-22183,Ce(BRu)2,70,Fddd,orthorhombic,3D,0.0007,na,32.92201167,31.92220467,1716.949164,1671.416475,911556.24,922324.21,0.073780057,0.071018962,3.30E-06,3.30E-06,47.19250433,46.45738167
JVASP-22188,Cu(RhS2)2,227,Fd-3m,cubic,3D,0.8359,na,57.854609,55.682051,2309.663946,2181.4063,690037.78,703568.06,0.169057515,0.15570336,3.82E-06,3.82E-06,55.645227,53.58839
JVASP-22189,Cu(RhSe2)2,227,Fd-3m,cubic,3D,0.4192,na,42.877271,40.222368,959.24838,857.4314483,521767.2333,529985.6833,0.099748194,0.087263531,4.99E-06,4.99E-06,38.694491,35.889464
JVASP-22193,DyB2C,135,P4_2/mbc,tetragonal,3D,0.0046,na,22.586453,31.28733733,1193.055538,1468.577669,832731.72,839749.4267,0.041971298,0.057384495,5.45E-06,5.45E-06,25.26871767,32.58236067
JVASP-22198,YAsPt,194,P6_3/mmc,hexagonal,3D,0.0041,na,-5.500844,-7.497457333,1561.432557,1853.995458,1657540.1,1619013.2,0.031656882,0.039054604,1.92E-06,1.92E-06,-3.125911667,-4.204374
JVASP-22199,Sr5As3,193,P6_3/mcm,hexagonal,3D,0.0828,na,2.82966463,1.793029067,8.175513251,9.990073184,261816.5133,263193.0267,0.001007611,0.001251682,1.06E-05,1.06E-05,-4.6073131,-6.399079833
JVASP-22200,LuB2C,135,P4_2/mbc,tetragonal,3D,0.0007,na,16.36720067,28.91524033,824.6394924,1105.13242,853167.7733,858424.8933,0.025426625,0.041472693,5.60E-06,5.60E-06,26.394073,40.21088187
JVASP-22201,TbB2C,135,P4_2/mbc,tetragonal,3D,0.0029,na,22.43226833,29.75954833,1255.169501,1506.038081,883741.3133,890705.6467,0.043590052,0.05722104,4.93E-06,4.93E-06,24.81880233,30.98639967
JVASP-22202,La(P3Ru)4,204,Im3,cubic,3D,0.075,na,13.030538,14.20667633,76.78560417,92.30589071,452225.5667,457345.5367,0.0055429,0.006604199,6.32E-06,6.32E-06,15.140566,16.012371
JVASP-22207,Mn3Mo3C,227,Fd-3m,cubic,3D,0.0115,na,25.740852,26.568102,282.7788956,302.4735213,426777.15,428515.27,0.019273941,0.020644708,8.40E-06,8.40E-06,16.121928,16.799179
JVASP-22208,Mn3W3C,227,Fd-3m,cubic,3D,0.0077,na,22.587563,23.679816,197.1286562,217.4655212,386376.77,387823.18,0.013715482,0.015153208,9.37E-06,9.37E-06,14.36685,14.859965
JVASP-22209,Mn3Al9Si,194,P6_3/mmc,hexagonal,3D,0.0053,na,3.587211,9.769705667,94.60039725,146.6344556,295184.21,298949.9267,0.006833936,0.008961721,1.66E-05,1.66E-05,8.413006767,13.62149132
JVASP-22210,Lu2Co3Si5,15,C2/c,monoclinic,3D,0.0087,na,-24.39203433,-23.58501133,430.2544879,396.0675441,590366.5467,584784.31,0.02573325,0.02355205,5.46E-06,5.46E-06,-20.1024289,-18.81758837
JVASP-22211,Ho2Ge2Os,12,C2/m,monoclinic,3D,0.0102,na,-7.663713967,-7.151397926,176.1814203,173.9012888,687364.31,684444.1167,0.009913851,0.009977932,4.26E-06,4.26E-06,-15.3700931,-14.75550983
JVASP-22212,Nb2Co12P7,174,P-6,hexagonal,3D,0.0013,na,-5.7147451,-5.811991567,4.387613915,5.257915233,162076.2647,161929.372,0.000890843,0.000993686,2.74E-05,2.74E-05,na,na
JVASP-22213,Lu5SbPd2,140,I4/mcm,tetragonal,3D,0.0049,na,-15.556741,-15.49111133,187.5739424,189.3938304,750992.4433,742711.4533,0.009874367,0.010071343,3.78E-06,3.78E-06,-16.385183,-16.1012934
JVASP-22215,Li2US3,12,C2/m,monoclinic,3D,0.0105,na,-23.63584327,-25.04569327,66.04902241,70.98740704,71060.691,70860.04833,0.030139424,0.03245083,3.24E-05,3.24E-05,77.47397667,75.29795367
JVASP-22216,Na2US3,12,C2/m,monoclinic,3D,0.0005,na,-20.63831503,-22.31826647,49.22894265,55.21229672,70739.44933,70514.18767,0.020697475,0.023318856,3.41E-05,3.41E-05,56.65417467,55.84374533
JVASP-22217,Sr2YIrO6,14,P2_1/c,monoclinic,3D,2.6723,na,10.9009961,10.25406887,126.4721594,119.3146302,485442.74,485566.0767,0.010638559,0.009922874,5.34E-06,5.34E-06,25.756255,24.56270933
JVASP-22221,Dy2Co3Si5,15,C2/c,monoclinic,3D,0.0015,na,-21.927395,-20.69096933,487.0946791,433.8356432,723394.32,717728.0867,0.021250394,0.019008869,4.45E-06,4.45E-06,-20.30145947,-19.16868517
JVASP-22229,Hf3Sb,82,I-4,tetragonal,3D,0.0017,na,-19.08101577,-17.5585708,123.3000843,104.3064512,336648.9733,333613.4233,0.012754171,0.010785771,9.75E-06,9.75E-06,-18.26020617,-16.86502037
JVASP-22230,Cr2HgS4,227,Fd-3m,cubic,3D,0.0278,na,4.572185867,5.441905767,9.044657254,12.81525341,432657.6233,432738.13,0.000569961,0.000806219,8.62E-06,8.62E-06,-6.8038421,-5.9945858
JVASP-22236,Ca(As2Rh3)2,187,P-6m2,hexagonal,3D,0.0171,na,23.19113967,22.74794127,1060.59964,1042.34003,1242533.967,1257629.867,0.036088058,0.035543955,2.21E-06,2.21E-06,14.26374437,13.42779697
JVASP-22237,Sr(As2Rh3)2,187,P-6m2,hexagonal,3D,0.008,na,23.0377772,22.12745647,1164.733236,1118.940231,1333387.8,1348666.4,0.038617108,0.037044195,2.03E-06,2.03E-06,15.2245621,14.15949017
JVASP-22264,Sr2MgIrO6,225,Fm-3m,cubic,3D,0.018,na,-38.942656,-38.474288,1553.761987,1499.649408,1024550.467,1013091.233,0.052482333,0.050329492,2.95E-06,2.95E-06,na,na
JVASP-22268,Ho(SiPt)2,129,P4/nmm,tetragonal,3D,0.0108,na,-11.769121,-12.25106607,668.6664492,717.2907539,4683830.833,4661068.767,0.010113806,0.010974899,6.69E-07,6.69E-07,na,na
JVASP-22272,Pr(FeP3)4,204,Im3,cubic,3D,0.2727,na,9.180455767,7.8940624,35.0525268,26.0502589,415901.8433,418033.3533,0.003283401,0.002436575,6.21E-06,6.21E-06,na,na
JVASP-22273,Nd(FeP3)4,204,Im3,cubic,3D,0.2739,na,9.458467167,8.2249362,37.31331814,28.36464822,417082.8667,419287.8967,0.003471311,0.002634963,6.21E-06,6.21E-06,na,na
JVASP-22277,Tb2Si5Ru3,72,Ibam,orthorhombic,3D,0.0008,na,-0.342471577,7.245156767,25.00439991,28.33982376,449555.16,449225.8267,0.001904944,0.002742534,9.40E-06,9.40E-06,-0.517567767,6.44542175
JVASP-22279,BaAl9Fe2,191,P6/mmm,hexagonal,3D,0.0057,na,4.154598933,4.387732633,61.86616402,63.91690372,1865106.033,1869864.5,0.000963983,0.001011179,1.69E-06,1.69E-06,na,na
JVASP-22282,Al9Co2,14,P2_1/c,monoclinic,3D,0.0026,na,-8.471651767,-8.330098133,248.1364248,274.4950712,1717342.213,1707996.993,0.006275743,0.006762735,1.98E-06,1.98E-06,-6.394497067,-6.0888062
JVASP-22284,SrAl9Co2,191,P6/mmm,hexagonal,3D,0.0028,na,7.748184767,7.2033244,118.7580095,103.9540549,2120200.567,2145817.3,0.002504328,0.00219779,1.41E-06,1.41E-06,na,na
JVASP-22285,Sm(Al2Cu)4,139,I4/mmm,tetragonal,3D,0.0024,na,4.6067103,4.423610293,148.9273027,158.0303269,3378592.167,3390590.833,0.00173263,0.001826223,8.27E-07,8.27E-07,na,na
JVASP-22286,Ho2Al,62,Pnma,orthorhombic,3D,0.0031,na,3.6034073,2.847126133,461.2403223,448.4447915,1078101.99,1082391.697,0.014390517,0.014100251,2.74E-06,2.74E-06,2.791623133,2.098437367
JVASP-22287,HoAl4Ni,63,Cmcm,orthorhombic,3D,0.0011,na,21.89722333,21.055824,1339.846984,1263.668624,3079848.633,3126279.933,0.02037803,0.018984662,1.09E-06,1.09E-06,21.43070033,20.82482067
JVASP-22289,LuAl,57,Pbcm,orthorhombic,3D,0.0026,na,14.23124827,14.92492177,739.7903902,787.3000653,906151.1933,913337.92,0.018023432,0.019147642,3.87E-06,3.87E-06,17.49294003,17.68049097
JVASP-22343,CeB2C,166,R-3m,trigonal,3D,0.0013,na,14.27446637,17.42750133,254.2960807,295.7878803,424440.07,425873.5933,0.014210107,0.016108031,8.21E-06,8.21E-06,21.23003067,22.005579
JVASP-22344,Ca3CrN3,63,Cmcm,orthorhombic,3D,0.0061,na,-18.9022078,-18.75648783,113.6490109,118.0569165,175122.63,172863.03,0.020723943,0.021795828,1.73E-05,1.73E-05,-44.32814033,-45.193019
JVASP-22346,V4GeS8,216,F-43m,cubic,3D,0.0228,0.0222,51.25370767,48.95019033,372.2489763,346.9162243,141704.27,144782.4233,0.084373586,0.077902312,1.73E-05,1.73E-05,-0.96978312,-0.88487319
JVASP-22347,V4GeSe8,216,F-43m,cubic,3D,0.0059,na,-53.744119,-54.705568,726.0399871,733.3532504,251361.4333,245047.4333,0.098134695,0.10071952,1.10E-05,1.10E-05,-4.1608454,-4.2487061
JVASP-22350,Lu2(NiB2)3,65,Cmmm,orthorhombic,3D,0.0059,na,-15.59344007,-15.85928203,914.4322568,932.9129422,2144265.967,2133086.467,0.018313512,0.018677039,1.47E-06,1.47E-06,na,na
JVASP-22351,ScB12,225,Fm-3m,cubic,3D,0.0038,na,-9.2808994,-9.4068748,452.8835102,459.7633887,5257828.033,5195695.1,0.003496377,0.00359116,5.38E-07,5.38E-07,na,na
JVASP-22353,Zr2NiAs2,194,P6_3/mmc,hexagonal,3D,0.0179,na,-40.792404,-38.38269333,1915.192935,1604.640194,1002582.513,943735.2233,0.061977673,0.053593245,2.98E-06,2.98E-06,-39.60443733,-36.58592967
JVASP-22354,Ho2NiAs2,194,P6_3/mmc,hexagonal,3D,0.024,na,-22.74670667,-21.99204867,513.3853637,416.8917461,908445.8933,886415.44,0.018354798,0.017283835,4.18E-06,4.18E-06,-27.95088233,-26.40328067
JVASP-22360,Rb2GeF6,225,Fm-3m,cubic,3D,6.0812,na,-170.1392133,496.49692,950.8608306,357.5521411,32847.93833,1450.4617,0.41314088,0.213724077,0.805487401,0.805487401,-157.02504,498.94003
JVASP-22365,RbCuF3,140,I4/mcm,tetragonal,3D,0.0059,na,-4.12903916,-3.156872563,159.9693407,150.6963839,958118.96,951716.06,0.004504103,0.004270083,3.29E-06,3.29E-06,16.32333,16.99005067
JVASP-22366,Rb2MgF4,139,I4/mmm,tetragonal,3D,6.8035,na,-123.45885,524.3016267,786.9806097,513.1190559,51641.65167,1814.95014,0.288617692,0.301743378,0.509783385,0.509783385,-124.73309,521.39127
JVASP-22368,Li(Co3P2)2,187,P-6m2,hexagonal,3D,0.0534,na,-13.5047053,-14.0707239,231.216134,233.069098,942201.21,938465.01,0.009066248,0.009295561,2.87E-06,2.87E-06,na,na
JVASP-22373,Sr2B4Rh5,69,Fmmm,orthorhombic,3D,0.008,na,20.74686833,19.26096433,992.219406,897.5321678,1914482.133,1933812.867,0.02329283,0.02060363,1.40E-06,1.40E-06,na,na
JVASP-22374,SrGaSn,194,P6_3/mmc,hexagonal,3D,0.0065,na,-26.38455733,-24.823789,660.2739902,537.556386,898502.6833,844549.25,0.025483764,0.022107826,3.39E-06,3.39E-06,-30.637057,-28.403343
JVASP-22377,HoAsPd,62,Pnma,orthorhombic,3D,0.0062,na,-135.1229957,73.10096633,1439.781778,834.904036,82669.87267,101332.8343,0.23153378,0.118107633,0.000144738,0.000144738,-138.849202,65.193571
JVASP-22381,Sr4IrO6,167,R-3c,trigonal,3D,2.3564,na,15.81936767,15.75132133,66.84188988,68.87186181,81121.93233,81591.33267,0.017389107,0.017798223,3.94E-05,3.94E-05,70.63561067,67.92934767
JVASP-22382,Nd2Be2SiO7,113,P-42_1m,tetragonal,3D,5.1572,na,-269.0516967,444.7044667,1009.014783,203.4186712,12196.93973,1042.2844,0.513811884,0.121094258,1.296063518,1.296063518,-160.9446767,450.20069
JVASP-22383,BaPIr,198,P2_13,cubic,3D,0.062,na,-1.0642677,-0.42302655,1.128205832,0.177872258,996062.47,993969.29,4.17E-05,6.53E-06,2.86E-06,2.86E-06,0.3956134,1.4291961
JVASP-22384,Ta3SnS6,193,P6_3/mcm,hexagonal,3D,0.0212,na,31.27980733,30.28850167,707.0981654,653.5519568,1003980.96,1031518.329,0.031546379,0.029653302,1.31E-05,1.31E-05,33.56956933,32.83761133
JVASP-22385,LiPF6,148,R-3,trigonal,3D,8.0261,na,-192.0394167,567.3743333,995.5480913,152.2113529,26979.524,468.40176,0.455312891,0.091122827,0.96753479,0.96753479,-181.39015,531.2885767
JVASP-22386,LiAsF6,148,R-3,trigonal,3D,5.2034,na,-241.73611,565.9705267,941.3346768,193.8206728,16060.368,600.47412,0.480034011,0.11591981,1.451013689,1.451013689,-230.85234,532.39025
JVASP-22390,V2B3,63,Cmcm,orthorhombic,3D,0.0004,na,11.72765517,11.85966947,624.1720572,640.1800471,3713355.2,3725258.267,0.007885373,0.008086394,8.04E-07,8.04E-07,11.13400667,11.278952
JVASP-22394,Ti3Se4,176,P6_3/m,hexagonal,3D,0.0016,na,-17.43186579,-16.32140217,388.9447999,304.5025458,505300.3133,499167.01,0.023130908,0.017679921,6.12E-06,6.12E-06,-14.1494341,-12.37823433
JVASP-22397,U2Si4W3,14,P2_1/c,monoclinic,3D,1.00E-04,na,-9.043123733,-9.3020907,21.10776702,22.14418388,205873.5633,205557.01,0.003624063,0.003822778,1.47E-05,1.47E-05,24.84229767,24.86941633
JVASP-22399,Ba2PrPtO6,225,Fm-3m,cubic,3D,2.4684,na,86.91430767,84.02734667,3979.684922,3820.254195,526824.7133,541066.8933,0.434148926,0.405913941,4.78E-06,4.78E-06,na,na
JVASP-22400,Ba3MnN3,176,P6_3/m,hexagonal,3D,0.0155,na,-44.99583767,-46.05370267,571.8352013,598.356602,505101.922,495205.6,0.04353384,0.044833203,4.63E-05,4.63E-05,-34.69316133,-33.38829667
JVASP-22401,Sr3MnN3,176,P6_3/m,hexagonal,3D,0.0128,na,-31.377978,-31.72160967,150.0382449,181.8812393,414267.6493,409833.4347,0.023482538,0.023846385,3.16E-05,3.16E-05,-27.6937903,-25.51863214
JVASP-22404,Dy5Ni2Sb,140,I4/mcm,tetragonal,3D,0.0053,na,-19.09609333,-18.84219,353.2116187,352.8127392,596064.2933,590694.6233,0.019217423,0.019075108,5.13E-06,5.13E-06,-8.862754467,-9.322446733
JVASP-22414,YbAgSb,62,Pnma,orthorhombic,3D,0.0257,na,-42.839707,16.38384322,389.2212513,77.86984573,164903.4403,149368.4523,0.052367254,0.010585153,2.58E-05,2.58E-05,-66.01532033,47.36710333
JVASP-22415,Sr3MgIrO6,167,R-3c,trigonal,3D,2.8007,na,20.553342,19.31378333,36.34660041,31.55052613,150004.8833,150417.7333,0.010856194,0.009680946,3.16E-05,3.16E-05,58.21808633,56.28114133
JVASP-22417,Y4C5,55,Pbam,orthorhombic,3D,0.0054,na,-4.130478933,-5.046073967,90.16243081,105.5632011,1872863.5,1865353.667,0.001831678,0.002171825,1.61E-06,1.61E-06,-2.299100767,-3.120371033
JVASP-22418,Zn3N2,206,Ia3,cubic,3D,0.7034,na,-29.28178767,185.37424,124.0033852,1054.45925,144623.3333,30685.34667,0.024260834,0.274717889,0.000248515,0.000248515,-41.868353,188.91975
JVASP-22421,K2AlF5,123,P4/mmm,tetragonal,3D,6.6164,11.4243,-153.1367467,437.4910033,929.300967,435.5479248,39638.327,2510.22307,0.376343195,0.257687323,0.658369548,0.658369548,-146.0985433,440.8305267
JVASP-22422,Th7Te12,174,P-6,hexagonal,3D,0.023,na,21.80774997,19.314964,83.68254301,73.46359286,265328.37,270470.8767,0.018743336,0.013294164,1.51E-05,1.51E-05,23.6320076,21.06892147
JVASP-22423,DyGeRh,62,Pnma,orthorhombic,3D,0.0032,na,-3.4045679,-3.830692567,81.67269902,95.40416015,1733566.467,1732104.133,0.002590398,0.003088765,1.78E-06,1.78E-06,-2.45038653,-2.78490474
JVASP-22424,Y4C7,14,P2_1/c,monoclinic,3D,0.0715,na,-56.63469,55.07317033,650.9257712,381.9459196,126520.7127,97343.03833,0.083006056,0.073582857,0.000119607,0.000119607,-33.04985367,52.16316067
JVASP-22425,Tm2C3,220,I-43d,cubic,3D,0.0137,na,-25.90537367,-21.93719667,393.5927248,277.0961689,586499.0867,575795.4967,0.018906005,0.013278789,5.57E-06,5.57E-06,-24.157658,-20.771362
JVASP-22426,Yb2C3,220,I-43d,cubic,3D,0.0248,na,-23.471953,-11.707402,177.6174401,43.23941384,322394.15,315470.4867,0.012492085,0.003006794,1.21E-05,1.21E-05,-16.798369,-4.9384038
JVASP-22428,Nd3IrO7,63,Cmcm,orthorhombic,3D,0.0081,na,23.0602117,23.6030381,183.3299524,169.4538114,100284.721,101552.6317,0.057342309,0.053120536,3.26E-05,3.26E-05,6.212469373,6.178699967
JVASP-22430,Nd(BIr)4,86,P4_2/n,tetragonal,3D,0.0222,na,-8.695379,-9.198548667,557.7031448,548.4197437,958778.56,960115.1733,0.022913574,0.022875606,3.67E-06,3.67E-06,-5.403392667,-6.045917333
JVASP-22434,LiMgPO4,62,Pnma,orthorhombic,3D,5.8897,na,-120.96188,341.1684467,843.7576276,879.779141,60565.372,6615.6539,0.290308238,0.486177738,0.561978432,0.561978432,-133.4944833,360.66183
JVASP-22437,Tm3(GePd)4,71,Immm,orthorhombic,3D,0.0016,na,-0.367019,-0.540007867,184.0645803,195.1750711,1718314.767,1716667.2,0.004956142,0.00525853,1.74E-06,1.74E-06,na,na
JVASP-22438,Sr2Si5N8,31,Pmn2_1,orthorhombic,3D,3.2927,na,-312.3069033,314.1080833,1585.528274,1172.804546,17290.79177,11289.59217,0.780310613,0.61103442,4.088999606,4.088999606,-254.9339333,315.83715
JVASP-22439,Ba2Si5N8,31,Pmn2_1,orthorhombic,3D,2.8428,na,-255.0358633,340.70098,1682.105195,1441.52721,22873.86683,12250.2292,0.750758259,0.731507676,2.497713749,2.497713749,-273.4123733,331.3458567
JVASP-22440,SrBeF4,14,P2_1/c,monoclinic,3D,7.9877,na,-116.2553333,475.2334433,804.1270951,272.5081049,61095.661,1273.814477,0.272825805,0.161804157,0.510986735,0.510986735,-129.3871767,511.97072
JVASP-22441,Na3Cd2IrO6,12,C2/m,monoclinic,3D,0.0011,na,2.505061833,13.35758343,49.7111572,108.2790376,205048.7223,206554.8367,0.005160748,0.009801953,4.50E-05,4.50E-05,32.92835667,31.98325367
JVASP-22442,Ba3NaIrO6,167,R-3c,trigonal,3D,0.017,na,9.985162367,8.441319767,121.2481883,113.0287509,101391.776,102820.2,0.024038948,0.0226724,3.57E-05,3.57E-05,25.34692,24.63444533
JVASP-22444,HfCoAs,62,Pnma,orthorhombic,3D,0.0048,na,-24.10134733,-6.218956333,548.8471901,357.2853356,140822.5037,132057.121,0.066022355,0.051157067,4.62E-05,4.62E-05,-39.52116823,-23.59332667
JVASP-22445,GeF4,217,I-43m,cubic,0D,5.0754,na,-174.33612,495.35783,981.090585,938.7522936,32280.06167,3825.717933,0.426076786,0.546574776,0.827169787,0.827169787,-179.12284,508.97486
JVASP-22446,RbAsF6,148,R-3,trigonal,3D,5.1944,na,-206.4494467,552.7945567,876.4431138,152.4803141,20566.033,498.7693533,0.430768586,0.091210193,1.119687432,1.119687432,-200.09368,434.42658
JVASP-22450,PrP5,11,P2_1/m,monoclinic,3D,0.0068,na,-89.37725333,46.16099,572.3827129,761.9551168,68617.668,51524.19233,0.145373476,0.166352355,0.000144501,0.000144501,-91.73505,55.915463
JVASP-22451,YB2C,135,P4_2/mbc,tetragonal,3D,0.0009,na,21.09404233,30.99733333,1027.171706,1372.052196,889496.1,895337.9,0.034103548,0.05159153,5.64E-06,5.64E-06,24.29183267,33.512911
JVASP-22453,Ir3Se8,148,R-3,trigonal,3D,0.0006,na,-36.43038667,-38.74331867,882.4828796,930.9675635,1010003.733,992203.0633,0.097040027,0.104320042,4.35E-06,4.35E-06,na,na
JVASP-22454,Tc2P3,2,P-1,triclinic,3D,0.0045,na,8.611544267,15.784475,290.5184446,305.0972317,266474.2533,268759.32,0.026868435,0.029098568,1.58E-05,1.58E-05,-9.117080233,1.687093943
JVASP-22455,Sc3Co2Si3,63,Cmcm,orthorhombic,3D,0.0009,na,-22.39676697,-22.636436,499.7899382,507.0157114,852389.7467,847086.3767,0.030221292,0.030977047,3.78E-06,3.78E-06,-16.3969578,-16.2066858
JVASP-22456,Sc2CoSi2,12,C2/m,monoclinic,3D,0.0003,na,-9.4476095,-9.823902,327.5965711,337.0584304,924362.0767,921479.3867,0.012970328,0.013456687,3.13E-06,3.13E-06,-8.176156513,-8.553965667
JVASP-22458,Ba5Sb3,193,P6_3/mcm,hexagonal,3D,0.0129,na,-111.9734267,68.15990667,843.2346521,780.7023465,52975.16833,28529.459,0.211559115,0.249857877,0.000556343,0.000556343,10.00093343,5.22612405
JVASP-22459,Fe5B2P,140,I4/mcm,tetragonal,3D,0.0036,na,-8.8826737,-8.799434067,109.1777213,111.9830944,719825.8433,718604.5833,0.005271059,0.005411539,4.33E-06,4.33E-06,4.819077573,4.714998107
JVASP-22460,LiGe,88,I4_1/a,tetragonal,3D,0.0045,na,-4.779090133,4.6486547,18.97237448,14.71000723,652353.9033,652058.6767,0.00084257,0.000667017,4.70E-06,4.70E-06,-4.080540087,6.5377692
JVASP-22461,Hf5ZnSb3,193,P6_3/mcm,hexagonal,3D,0.0036,na,19.48372033,18.54846173,2342.947095,2394.761498,1363262.933,1382673.433,0.055620317,0.055873888,2.12E-06,2.12E-06,24.6814356,24.03087563
JVASP-22462,Ba(Sb3Ru)4,204,Im3,cubic,3D,0.0224,na,20.289808,22.24125,230.1901624,279.810452,559153.29,565647.08,0.0136523,0.016300531,5.55E-06,5.55E-06,18.896688,21.509744
JVASP-22463,Er2FeC4,72,Ibam,orthorhombic,3D,0.009,na,-20.2085392,-11.72658643,253.8395594,137.2452315,481522.1767,466713.3167,0.018903957,0.009678558,1.25E-05,1.25E-05,-20.5904435,-8.533610267
JVASP-22464,Mn2N,60,Pbcn,orthorhombic,3D,0.0004,na,-9.666001667,-9.782925833,129.061351,129.8428298,1681814.773,1679968.957,0.004694817,0.004689372,2.21E-06,2.21E-06,11.32562427,11.22961373
JVASP-22483,MgVBiO5,14,P2_1/c,monoclinic,3D,2.9858,na,-397.07155,384.9407533,416.8076651,582.0078366,2994.11945,4060.044333,0.246717221,0.343493515,17.97166284,17.97166284,na,na
JVASP-22485,Ca(TiS2)4,166,R-3m,trigonal,3D,0.003,na,-4.245810467,-5.379089667,343.753686,410.4794997,1298034.097,1285942.21,0.011806273,0.013612156,7.50E-06,7.50E-06,na,na