JID,Composition,Spg.numb.,Spg.symb.,Cryst.,Dimensionality,OPT SCF gap, MBJ gap,n-Seebeck,p-Seebeck,n-powerfact,p-powerfact,n-cond,p-cond,n-ZT,p-ZT,Avg.elec.mass,Avg.hole mass,n-mp-Seeb,p-mp-Seeb
JVASP-31003,Er5Si3,193,P6_3/mcm,hexagonal,3D,0.0026,na,-46.682679,-47.38561233,1529.991747,1516.538247,685844.41,665056.7633,0.08381559,0.084201925,4.28E-06,4.28E-06,-49.54079033,-50.055144
JVASP-31006,Er3Al2,136,P4_2/mnm,tetragonal,3D,0.0016,na,-1.589758333,0.913538333,59.1851793,72.18796544,285219.4867,284796.32,0.005020746,0.005828061,1.22E-05,1.22E-05,2.110048067,3.690575
JVASP-31013,K2MgF4,139,I4/mmm,tetragonal,3D,6.9559,10.5159,-143.1791767,478.0269467,911.3909768,320.6025698,44423.98233,1381.011533,0.355459357,0.190263818,0.622941173,0.622941173,-134.9335967,493.9591433
JVASP-31060,Er5Sn3,193,P6_3/mcm,hexagonal,3D,0.0089,na,-46.57211967,-47.42982133,1270.91015,1271.615695,591379.1967,571597.0433,0.082795857,0.084171168,5.07E-06,5.07E-06,-45.64269867,-46.41113433
JVASP-31064,Al4(B2O5)3,146,R3,trigonal,3D,5.9881,na,-143.0580567,356.54336,747.0392624,700.5470407,36616.04367,4935.692533,0.314113754,0.402503339,0.602613969,0.602613969,-138.7100933,358.2844867
JVASP-31081,Li3NbO4,217,I-43m,cubic,3D,3.7591,na,-326.08388,484.8735,1129.347298,366.364649,10621.08433,1558.320067,0.63042309,0.217665608,2.006611316,2.006611316,-331.65303,494.74156
JVASP-31138,Hf23Se25,1,P1,triclinic,3D,0.003,na,-15.92990273,-12.14563987,63.45595167,55.58465834,64552.01567,64004.59533,0.016938166,0.015225342,5.36E-05,5.36E-05,na,na
JVASP-31146,H3ClO,160,R3m,trigonal,3D,5.4075,7.7712,-118.7226967,380.16541,789.8396171,1132.196117,55974.62867,8102.218967,0.276737278,0.616370069,0.479332103,0.479332103,-119.5374867,431.43213
JVASP-31147,NaYF4,141,I4_1/amd,tetragonal,3D,7.3025,na,-422.19748,394.4553433,790.5809826,903.6380598,4714.778233,5551.374567,0.451221649,0.504994693,20.81804725,20.81804725,-137.6969067,398.3755767
JVASP-31149,Zr3InF15,167,R-3c,trigonal,3D,5.6476,na,-408.0928167,474.0703233,251.6788815,175.7722712,1586.271,785.58883,0.148930997,0.105160447,13.81599238,13.81599238,-466.3808233,494.5959733
JVASP-31151,Na3HfF7,8,Cm,monoclinic,3D,6.4176,9.2634,-107.2599833,410.1464333,575.7146217,353.1543915,49855.438,2111.7476,0.215482747,0.208792878,0.479365887,0.479365887,-143.2840033,427.76593
JVASP-31153,NaAlB14,74,Imma,orthorhombic,3D,1.8891,2.0939,-287.0534633,307.92779,2426.131521,1609.485598,30774.547,17295.562,1.103889507,0.856351229,1.281338836,1.281338836,-202.4515233,269.1453233
JVASP-31154,BH6N,31,Pmn2_1,orthorhombic,3D,6.179,9.0888,-317.7521533,317.1667067,2263.585617,1145.122129,22156.3465,11849.74163,1.057793145,0.603973489,1.645338821,1.645338821,-281.40802,402.9084067
JVASP-31155,HgPbF6,148,R-3,trigonal,3D,1.2697,3.0895,-131.21867,434.4638767,825.1898644,1076.0587,47875.372,5685.599,0.311622221,0.626306971,0.549643825,0.549643825,-133.9772333,403.1420433
JVASP-31156,Li2NiF4,74,Imma,orthorhombic,3D,1.2252,na,-413.5421133,391.6732833,368.6110291,167.9665541,2172.203133,975.1215133,0.218675714,0.099721342,19.06155801,19.06155801,-420.1464233,417.1217733
JVASP-31161,LiMgP,216,F-43m,cubic,3D,1.7384,2.2318,-145.28359,327.24579,1848.083577,3683.989885,87556.518,34400.93867,0.541455529,1.601413712,0.290583785,0.290583785,-160.66484,308.01965
JVASP-31163,TmCuSe2,156,P3m1,trigonal,3D,1.2744,1.612,-313.422,249.2097833,4193.302019,1978.348241,37482.83113,31866.01433,1.627379103,0.848678024,1.77729843,1.77729843,-317.9589567,244.2765333
JVASP-31165,BrO2F,9,Cc,monoclinic,0D,2.5444,na,-344.7013967,324.72094,1410.584816,944.1846429,10052.95387,8075.960133,0.713214257,0.502678963,33.68347164,33.68347164,na,na
JVASP-31290,CoCuO2,166,R-3m,trigonal,3D,0.0348,na,-290.16678,367.0618933,3497.776995,1132.538088,41535.25633,8483.068133,1.378466657,0.475032341,0.072532959,0.072532959,-311.8392533,456.7989333
JVASP-31299,AsHPbO4,13,P2/c,monoclinic,3D,3.0538,na,-139.91185,210.1751067,941.7019039,1024.896907,48026.22833,23018.77567,0.355247863,0.478015863,0.571624055,0.571624055,-154.47012,236.2091933
JVASP-31301,N2O5,194,P6_3/mmc,hexagonal,0D,0.9314,na,-448.27907,383.1286333,447.726712,809.9135627,2179.387367,5285.03318,0.265189706,0.464061859,7.93352868,7.93352868,-454.33412,380.6876367
JVASP-31310,ErHO2,11,P2_1/m,monoclinic,3D,4.2271,6.2967,-100.5504777,284.6614967,521.0428173,1345.227173,54820.95467,15870.1079,0.18650847,0.639070907,0.845862377,0.845862377,-112.85652,290.57787
JVASP-31311,K2Li14Pb3O14,71,Immm,orthorhombic,3D,2.0171,na,-152.6939467,466.07232,868.8186102,354.3724454,36477.98,1587.05281,0.355899269,0.209589327,0.701259154,0.701259154,-137.1835367,474.1164733
JVASP-31312,Rb2Li14Pb3O14,71,Immm,orthorhombic,3D,2.0008,na,-153.7725833,467.5220033,870.9320182,317.2198093,36006.88033,1423.218487,0.357779064,0.187824494,0.701033783,0.701033783,na,na
JVASP-31319,NbNiAs2,62,Pnma,orthorhombic,3D,0.005,na,-3.9477407,-3.932464633,429.5952506,426.7674557,1115271.757,1114091.38,0.014704267,0.014672966,2.71E-06,2.71E-06,-6.5205307,-6.534593167
JVASP-4663,TlAgTe2,119,I-4m2,tetragonal,3D,0.0006,na,4.380318967,4.4534496,20.12500646,18.28480441,4734823.667,4742669.1,0.001078068,0.001200077,4.20E-06,4.20E-06,4.56796222,5.346081433
JVASP-4666,GaTe,194,P6_3/mmc,hexagonal,2D,0.2169,1.0468,-119.8007,108.3003027,1628.197747,1011.252578,117339.271,111361.6593,0.389847151,0.238142196,0.002433615,0.002433615,-164.2838,187.5366433
JVASP-588,TaS2,160,R3m,trigonal,2D,0.0263,na,13.95650523,13.4190532,261.4037434,289.9424164,1624469.62,1619347.13,0.026204054,0.027023595,1.98E-05,1.98E-05,na,na
JVASP-332,TiSe,194,P6_3/mmc,hexagonal,3D,0.0012,0.0003,42.60196167,44.76763633,1493.64695,1629.353573,656238.1433,666434.2933,0.068480578,0.074055632,4.97E-06,4.97E-06,42.62722267,45.82312267
JVASP-67,NbS2,194,P6_3/mmc,hexagonal,2D,0.0073,na,9.455027833,8.764577767,1441.846389,1443.227994,2513091.667,2517913.067,0.02904627,0.028716021,1.06E-06,1.06E-06,8.395796667,7.331505
JVASP-65,NbS2,194,P6_3/mmc,hexagonal,2D,0.0359,na,7.787177333,6.957588,250.9274317,290.8271286,1350885.056,1346074.818,0.017683876,0.018808909,2.34E-05,2.34E-05,8.395796667,7.331505
JVASP-66,NbS2,194,P6_3/mmc,hexagonal,2D,0.0206,0.0001,30.01595467,29.058392,2256.002028,2327.847033,1625798.253,1625810.157,0.159364644,0.160609288,3.06E-06,3.06E-06,8.395796667,7.331505
JVASP-4669,UFe3B2,191,P6/mmm,hexagonal,2D,0.0082,na,17.351448,18.01142367,3338.91864,3359.270262,879499.63,881138.2833,0.112904011,0.113967328,3.74E-06,3.74E-06,10.319527,11.58837633
JVASP-4672,ThGe2,141,I4_1/amd,tetragonal,2D,0.0006,0.0004,12.0406446,12.80397773,827.7220254,922.63732,2829301.133,2857842.7,0.009000945,0.010066069,1.03E-06,1.03E-06,17.750267,17.96820133
JVASP-4675,B2W,191,P6/mmm,hexagonal,2D,0.0419,0.0051,3.075297167,2.975966633,220.1574522,205.4332398,17211986,17225955.33,0.00050092,0.000467037,1.64E-07,1.64E-07,-0.731320633,-0.755127933
JVASP-4678,YbB2,191,P6/mmm,hexagonal,2D,0.0042,na,-9.3628343,-9.3323129,365.4667875,364.4409096,3764727.467,3755301.567,0.007517404,0.007598822,9.08E-07,9.08E-07,-9.161642167,-9.1257609
JVASP-4322,PuGe2,141,I4_1/amd,tetragonal,2D,0.0032,na,-25.43212333,-25.773657,466.6892025,477.0725405,721338.0533,717921.33,0.026016755,0.026723024,4.04E-06,4.04E-06,na,na
JVASP-581,NbSe2,164,P-3m1,trigonal,2D,0.025,na,5.782964273,5.147982467,201.9222398,202.6524466,3268586.533,3280344.3,0.001908276,0.001924295,1.20E-06,1.20E-06,na,na
JVASP-4687,Zr(NiP)2,139,I4/mmm,tetragonal,2D,0.0035,0.002,-12.267009,-12.12774467,560.0965003,546.8630404,3639157.6,3619589.133,0.00591457,0.005767415,7.92E-07,7.92E-07,-13.540982,-12.92165567
JVASP-4693,YbSiIr,62,Pnma,orthorhombic,3D,0.0042,0.0013,19.4957992,19.08651083,1207.140284,1199.97626,2214370.233,2237200.7,0.021546166,0.021201372,1.45E-06,1.45E-06,19.1225215,18.71460353
JVASP-4696,SrLiP,187,P-6m2,hexagonal,2D,0.8989,1.7285,-297.0582,303.17313,2181.830454,3464.800291,24438.29567,35534.779,1.011103149,1.426510398,1.156119901,1.156119901,-281.4019667,296.3037067
JVASP-4699,TaS,187,P-6m2,hexagonal,2D,0.0102,0.0354,-7.329351533,-7.506568067,897.4845787,918.0341536,9156290.467,9129562.733,0.003169575,0.003267499,3.22E-07,3.22E-07,na,na
JVASP-4702,TmTe,194,P6_3/mmc,hexagonal,2D,0.0053,0.0077,-6.751456567,-7.092622467,148.9957745,156.4129305,2841591.333,2825953.167,0.001909909,0.002083627,1.17E-06,1.17E-06,-4.838573933,-4.967004033
JVASP-4705,AuSe,194,P6_3/mmc,hexagonal,2D,0.002,0.0094,16.23024967,16.24417557,1491.038559,1503.684277,6494444.333,6534560.567,0.011233185,0.011317242,4.99E-07,4.99E-07,15.36950273,15.35005773
JVASP-4708,B2Au,191,P6/mmm,hexagonal,2D,0.0177,0.0002,0.630145133,0.6840293,346.0236693,340.2555775,13189808,13189129,0.001013655,0.000999283,2.14E-07,2.14E-07,na,na
JVASP-4711,PdO,139,I4/mmm,tetragonal,3D,0.0036,0.0031,-8.9656,-8.937955833,290.2369685,287.9730065,3610717.433,3604747.7,0.003174123,0.003151238,7.82E-07,7.82E-07,1.1800114,1.1390451
JVASP-4714,YbNa(PS3)2,2,P-1,triclinic,3D,1.572,2.0552,-295.3634267,355.61823,590.7562448,413.8731247,6314.791567,3411.276533,0.333299636,0.243093173,6.490103212,6.490103212,-317.2594467,381.6255167
JVASP-4720,PrAl2Ni3,191,P6/mmm,hexagonal,3D,0.0021,0.0059,-4.187577833,-4.0813664,114.6313873,101.8454898,4453146.8,4452321.467,0.001609988,0.001464575,9.30E-07,9.30E-07,na,na
JVASP-4723,GeO2,60,Pbcn,orthorhombic,3D,1.6751,na,-62.35297167,471.1608233,398.8714168,1266.986062,102514.503,5954.506767,0.099621416,0.710814969,0.202112268,0.202112268,-60.88781067,475.4945567
JVASP-4325,LuSi2,191,P6/mmm,hexagonal,3D,0.0156,0.0172,-10.33032417,-10.67281527,1016.856399,1086.966798,10160439.77,10115031,0.004620544,0.004906374,3.03E-07,3.03E-07,na,na
JVASP-128,PtSe2,164,P-3m1,trigonal,2D,0.0213,0.0612,-106.0787367,-61.63833733,3857.899731,1150.245205,341412.1933,297125.85,0.193679761,0.057430579,1.44E-05,1.44E-05,-219.76153,316.1975267
JVASP-4729,YAl3,194,P6_3/mmc,hexagonal,3D,0.0019,na,1.253043033,0.9530349,154.2438098,139.1140675,1901461.833,1905856.2,0.002551065,0.002317473,1.62E-06,1.62E-06,0.4363486,0.2504421
JVASP-589,TaSe2,164,P-3m1,trigonal,2D,0.0091,na,-2.903056,-3.8217598,79.19465257,97.94222515,3714092.9,3713955.467,0.003026766,0.004060237,1.21E-06,1.21E-06,na,na
JVASP-4331,Na3As,194,P6_3/mmc,hexagonal,3D,0.6515,1.2885,-38.04463733,334.4396433,205.5496384,1766.945162,138905.1967,14865.88153,0.041340214,0.789327904,0.006308597,0.006308597,-37.52875167,246.2071567
JVASP-4741,LuPb2,139,I4/mmm,tetragonal,2D,0.0009,0.0043,7.088258633,7.0035812,413.1470165,406.2836722,7947196.233,7968140.167,0.003061829,0.003003285,3.85E-07,3.85E-07,na,na
JVASP-4744,TlNi,194,P6_3/mmc,hexagonal,3D,0.0162,0.0237,-22.23336067,-22.328072,3065.089654,3032.785682,5805170.167,5737059.833,0.020249585,0.020319939,5.28E-07,5.28E-07,-22.58614333,-22.725901
JVASP-4747,ZnNi3Sb2,164,P-3m1,trigonal,2D,0.0078,0.0033,-9.6755285,-9.584966033,922.7385179,896.0138585,6664782.633,6645694.4,0.005741949,0.005615006,4.29E-07,4.29E-07,-6.235777233,-6.656822633
JVASP-131,SnS2,164,P-3m1,trigonal,2D,1.224,2.0634,-267.1814533,379.79571,3789.940274,2180.461933,51142.06433,17269.0094,1.415656065,1.042747945,0.572629298,0.572629298,-265.66607,436.8908333
JVASP-107,SiC,186,P6_3mc,hexagonal,3D,2.4947,3.2315,-233.3573,291.3665167,3461.644002,1807.314292,62516.27567,21121.15467,1.159068206,0.876869935,0.47357076,0.47357076,-215.06344,301.6135167
JVASP-4750,PrGe2,141,I4_1/amd,tetragonal,2D,0.0016,0.0045,-21.56740333,-18.55703867,1267.835939,911.7684447,2903811.867,2849605.9,0.017248612,0.012423102,1.14E-06,1.14E-06,-26.1618,-23.12359833
JVASP-4756,YbPrSe3,63,Cmcm,orthorhombic,3D,0.0051,na,10.35376163,9.331211667,347.0768637,289.3073624,1224742.15,1238641.693,0.008328387,0.007136283,6.80E-06,6.80E-06,6.293774667,5.471914
JVASP-4759,YbNdSe3,63,Cmcm,orthorhombic,3D,0.002,0.0006,10.82622697,9.913442233,378.4858349,321.9894848,1251040.92,1265828.617,0.009355369,0.008247631,7.00E-06,7.00E-06,6.416211667,5.661449
JVASP-4762,YbSmSe3,63,Cmcm,orthorhombic,3D,0.0047,0.0011,11.31861033,10.8126749,345.7808765,326.3984421,1038620.677,1052625.807,0.009509369,0.009052255,7.54E-06,7.54E-06,6.206531,5.532319667
JVASP-4765,CaPd5,191,P6/mmm,hexagonal,2D,0.0034,na,15.29717967,14.71180933,1105.410117,1014.170086,4130766.633,4150154.067,0.011609649,0.010654675,6.91E-07,6.91E-07,12.6746748,12.2596652
JVASP-82,ZrS2,164,P-3m1,trigonal,2D,0.9109,1.1723,-307.87742,268.71456,3375.582261,1894.397228,32833.50047,32395.56467,1.35461734,0.784395024,1.1356697,1.1356697,-303.2688233,309.8858867
JVASP-36,ZnSe,216,F-43m,cubic,3D,1.2691,na,-38.04567967,272.79443,217.0151158,2883.902941,149926.8067,38753.385,0.041833491,1.145680042,0.130606629,0.130606629,-37.999685,285.45816
JVASP-35,ZnSe,216,F-43m,cubic,3D,1.1388,na,-39.584696,290.79284,234.1509748,2917.163517,149431.22,34497.95533,0.045132533,1.212944391,0.123060993,0.123060993,-37.999685,285.45816
JVASP-96,ZnSe,216,F-43m,cubic,3D,1.2241,2.6296,-41.03577567,291.35692,245.9617879,2920.763584,146063.7167,34406.91467,0.048347437,1.215772755,0.131919023,0.131919023,-37.999685,285.45816
JVASP-4771,AgB2,191,P6/mmm,hexagonal,2D,0.0008,0.0053,5.683931667,5.686587067,412.4567312,413.654807,11376893,11409428,0.001454222,0.001453417,2.49E-07,2.49E-07,na,na
JVASP-4774,Np(CrSi)2,139,I4/mmm,tetragonal,2D,0.001,0.0014,-30.02172033,-30.18383833,1112.701076,1116.659552,985370.9967,981947.5367,0.043139234,0.043398878,2.79E-06,2.79E-06,na,na
JVASP-4777,Tl(FeS)2,139,I4/mmm,tetragonal,2D,0.0012,0.0002,16.768689,16.87815433,314.5941035,322.4953104,1104848.45,1112493.783,0.010408127,0.010582258,3.14E-06,3.14E-06,na,na
JVASP-4783,FeN,194,P6_3/mmc,hexagonal,2D,0.0027,na,-2.651937997,-2.543302627,31.39676278,28.82027847,4970436.367,4969239.1,0.000339754,0.000311832,6.70E-07,6.70E-07,13.48593067,13.409399
JVASP-4334,NdSb,123,P4/mmm,tetragonal,3D,0.0139,0.0018,8.984419,10.26612867,5880.28052,5658.578636,2279611.967,2364254.867,0.063337477,0.057808366,1.76E-06,1.76E-06,1.470018,2.242778
JVASP-4337,VS,194,P6_3/mmc,hexagonal,3D,0.0016,0.0023,0.181534133,0.127906567,52.74235128,48.92161752,2704028.367,2704623.5,0.000806683,0.000748227,1.05E-06,1.05E-06,0.2031634,0.229929433
JVASP-311,Ti2O,164,P-3m1,trigonal,3D,0.0107,0.0057,-16.51632667,-16.61953033,1050.472541,1066.438349,2548063.767,2525375.2,0.01266791,0.012956222,1.30E-06,1.30E-06,-16.07116533,-16.09851767
JVASP-4261,PrTe3,63,Cmcm,orthorhombic,2D,0.0007,na,9.484439233,13.71120193,139.1572514,174.4122009,6382105.53,6332547.17,0.007974939,0.014257521,1.58E-05,1.58E-05,14.02348453,20.41136047
JVASP-4222,US3,11,P2_1/m,monoclinic,2D,0.0018,0.0006,-2.683836667,-1.884856667,295.4970716,298.2126697,147164.9668,148525.9417,0.032588988,0.032574179,0.000357057,0.000357057,-24.902065,-25.06970333
JVASP-4795,CdTe,47,Pmmm,orthorhombic,3D,0.0049,na,-10.00712157,-7.269926767,329.4832967,192.0483737,3845257.833,3795886.267,0.003657285,0.001881416,1.08E-06,1.08E-06,6.740648267,7.295979667
JVASP-4798,TaP,141,I4_1/amd,tetragonal,3D,0.0007,na,3.687733667,3.4604098,616.5166431,587.0470427,4336990.2,4337270.033,0.008461963,0.007953801,6.82E-07,6.82E-07,3.190309333,2.913302067
JVASP-116,MgO,225,Fm-3m,cubic,3D,5.1306,6.8046,-102.78564,408.03167,702.0255984,1821.520261,66448.94033,10940.729,0.229234374,0.966050351,0.395632503,0.395632503,-92.167274,408.82649
JVASP-4804,NaMnTe2,156,P3m1,trigonal,3D,0.0234,0.0044,15.88540967,15.52522733,166.1740726,163.4149813,1045730.247,1056485.217,0.010325967,0.009756855,5.28E-06,5.28E-06,16.40669367,15.91512633
JVASP-4807,Zr2Np,191,P6/mmm,hexagonal,2D,0.0007,0.0085,18.82542533,18.775488,1073.69001,1067.490545,2855993.633,2862592.1,0.014639937,0.01458237,1.08E-06,1.08E-06,18.46513333,18.46737133
JVASP-4816,YSi2,141,I4_1/amd,tetragonal,2D,0.0019,0.0002,-20.347956,-20.80370967,1806.660332,1855.323588,5001157.1,4936451.833,0.019213979,0.019955842,6.44E-07,6.44E-07,-20.05555133,-20.404384
JVASP-4819,DySi2,141,I4_1/amd,tetragonal,2D,0.0018,0.0032,-20.19698133,-20.67171433,1879.80595,1937.339297,5177500.333,5108366.133,0.018334352,0.0191266,6.08E-07,6.08E-07,-19.59679533,-19.984092
JVASP-4822,TlFeS2,119,I-4m2,tetragonal,2D,0.0013,na,1.4145174,1.230080267,66.90433408,72.8236827,2633223.447,2638679.027,0.001084563,0.00128151,2.70E-06,2.70E-06,na,na
JVASP-207,GeS,63,Cmcm,orthorhombic,3D,0.8253,1.4582,-166.84181,179.5616967,2431.146148,4216.189409,94124.70133,121480.138,0.509914525,0.817720474,1.063939414,1.063939414,-178.66992,160.0993
JVASP-4825,NaMgF3,63,Cmcm,orthorhombic,3D,7.1519,10.9173,-132.6073133,473.2399333,874.3181373,773.8185298,50555.557,3550.277637,0.32491694,0.451138313,0.582495808,0.582495808,-132.6330133,522.5524233
JVASP-4831,Sr2Si,194,P6_3/mmc,hexagonal,2D,0.0064,0.0635,-42.6425776,-12.430776,516.8601236,214.0352809,198547.3433,172179.4833,0.070019409,0.028804635,1.72E-05,1.72E-05,-39.52397369,-23.000072
JVASP-4837,Ga2O3,63,Cmcm,orthorhombic,3D,1.4761,na,-64.11605433,349.6669433,432.1295125,1808.366622,105430.906,14594.02223,0.106535017,0.885406153,0.220215102,0.220215102,-55.32549567,346.9494067
JVASP-4840,Ca3N2,164,P-3m1,trigonal,3D,1.9824,3.1164,-291.8573233,432.9445667,1875.912431,1469.446628,21286.34307,7899.320233,0.884977513,0.836625633,1.788918995,1.788918995,-130.75569,450.7711467
JVASP-4843,BN,160,R3m,trigonal,2D,4.3663,5.8849,-272.9599833,359.8982367,3722.818732,3866.229553,49731.68867,30251.121,1.397157671,1.730695005,0.607051271,0.607051271,-312.2796133,353.19658
JVASP-329,TiSe,129,P4/nmm,tetragonal,2D,0.0177,0.0118,-1.241555577,-1.39427357,5.66148238,5.849397926,2202196.45,2201005.587,7.99E-05,8.71E-05,1.77E-06,1.77E-06,0.82458814,0.597019853
JVASP-4846,PtN,194,P6_3/mmc,hexagonal,2D,0.0154,0.0141,-9.1608098,-8.886708467,497.3592903,467.9807607,9072048.6,9057886.733,0.003748531,0.003485642,4.96E-07,4.96E-07,-9.432253233,-9.112021133
JVASP-4849,AlN,194,P6_3/mmc,hexagonal,3D,3.6884,4.4288,-100.3314023,158.2566933,697.4563131,980.3755738,69069.34467,40914.73033,0.207712733,0.378575184,0.344397217,0.344397217,-87.01058967,154.6658
JVASP-15,ZrTe,194,P6_3/mmc,hexagonal,3D,0.0362,0.148,30.45227567,47.54480281,568.9636351,944.8244901,265484.1267,279023.5367,0.040774654,0.068121156,1.28E-05,1.28E-05,-17.2316963,1.933884
JVASP-4852,ScAg(PSe3)2,163,P-31c,trigonal,2D,1.4806,1.6889,-370.1416133,355.5418133,883.2488643,920.4591863,6090.2695,7413.464433,0.509331117,0.528472796,4.612046318,4.612046318,-372.6785467,382.4164
JVASP-4855,ErAg(PSe3)2,163,P-31c,trigonal,2D,1.651,2.0043,-347.0889867,357.2792667,2142.876942,841.1714182,17666.4763,6658.182633,1.085094689,0.485334538,3.947195844,3.947195844,-328.1735333,403.1769333
JVASP-4858,TmAg(PSe3)2,163,P-31c,trigonal,2D,1.6673,2.0086,-349.7779967,358.9714067,2185.455677,845.5108297,17561.42013,6639.495633,1.110329124,0.487607049,3.553843442,3.553843442,-333.4887867,401.7863867
JVASP-4861,YbGa2,191,P6/mmm,hexagonal,3D,0.0204,0.0076,-3.3827503,-3.5773719,184.4472943,172.822989,8007480.033,7994852.4,0.001127743,0.001085632,3.81E-07,3.81E-07,-4.6226683,-4.799382467
JVASP-155,PdS2,61,Pbca,orthorhombic,2D,0.0083,0.0251,-78.69096333,3.253986667,2862.526018,1332.369629,73927.417,72822.263,0.506508139,0.269453869,0.000168562,0.000168562,-303.33294,272.1434767
JVASP-590,TaSe2,160,R3m,trigonal,2D,0.0004,na,-27.16325843,-27.77132797,308.3189208,307.2833643,2010594.677,2006125.103,0.061999027,0.06123001,8.44E-06,8.44E-06,-27.6953757,-28.20793372
JVASP-4870,Yb2SeO2,164,P-3m1,trigonal,2D,0.0321,0.0013,15.13046803,14.62986133,577.9116158,577.3389247,1611904.393,1612943.783,0.031439553,0.031089933,2.12E-06,2.12E-06,20.0154453,20.0084761
JVASP-4340,CdAu,51,Pmma,orthorhombic,2D,0.001,0.0015,0.959901786,0.960075493,33.22163115,33.32563612,15086372,15100031.67,9.66E-05,9.65E-05,1.88E-07,1.88E-07,-2.338945207,-2.510131167
JVASP-4343,S5N6,15,C2/c,monoclinic,0D,2.014,2.1285,-388.4872567,320.57398,422.7746543,772.2644848,2942.379367,6568.2381,0.250553497,0.426805214,10.62941678,10.62941678,-377.9260267,343.2269233
JVASP-52,MoS2,160,R3m,trigonal,2D,0.8516,na,-281.9366767,159.6894267,3418.726089,963.198319,42930.293,37810.754,1.360615903,0.394061209,0.594272647,0.594272647,-357.24704,195.1138767