JID,Composition,Spg.numb.,Spg.symb.,Cryst.,Dimensionality,OPT SCF gap, MBJ gap,n-Seebeck,p-Seebeck,n-powerfact,p-powerfact,n-cond,p-cond,n-ZT,p-ZT,Avg.elec.mass,Avg.hole mass,n-mp-Seeb,p-mp-Seeb
JVASP-25074,Sc,229,Im-3m,cubic,3D,0.0012,0,-10.08264313,-10.46490913,707.641926,730.6685826,2981445,2977228.467,0.011047918,0.011446403,8.99E-07,8.99E-07,na,na
JVASP-25076,Tm,225,Fm-3m,cubic,3D,0.0227,0.0162,14.809611,14.567405,896.7902428,872.0338501,4088872.533,4109310.467,0.009199368,0.008936524,6.79E-07,6.79E-07,na,na
JVASP-25077,Ba,225,Fm-3m,cubic,3D,0.0881,na,36.347074,35.710604,2276.446244,2237.019406,1723131.767,1754184.867,0.052854571,0.051750592,1.59E-06,1.59E-06,48.407302,48.643761
JVASP-25078,Dy,225,Fm-3m,cubic,3D,0.0074,0.0035,0.258658733,-0.208158233,31.71799561,33.77937594,3805023.733,3807158.367,0.000352983,0.000380447,7.23E-07,7.23E-07,na,na
JVASP-25079,Er,225,Fm-3m,cubic,3D,0.0115,0.0261,12.105544,11.931455,601.9579849,587.2305788,4107689.033,4124980,0.006073057,0.005918472,6.80E-07,6.80E-07,na,na
JVASP-25080,Ho,225,Fm-3m,cubic,3D,0.0006,0.0083,10.534588,10.313114,496.8352609,478.0904768,4476899.033,4495007.867,0.00462766,0.004455271,6.21E-07,6.21E-07,na,na
JVASP-25081,Hg,191,P6/mmm,hexagonal,3D,0.0158,0.0099,-19.047022,-17.35938667,1007.728705,846.7834074,2781881.8,2637421.167,0.01400942,0.011735659,1.15E-06,1.15E-06,-20.67899167,-19.56782033
JVASP-25082,U,229,Im-3m,cubic,3D,0.0049,na,18.500289,18.428142,4584.517183,4556.338533,13394810.67,13416921.67,0.014505667,0.014394767,2.10E-07,2.10E-07,19.48609,19.413191
JVASP-25083,As,221,Pm-3m,cubic,3D,0.003,0.0002,-4.105957633,-0.9232884,169.1732717,8.53719106,10034663.67,10014753,0.000526996,2.66E-05,3.05E-07,3.05E-07,-0.74732706,-0.82909928
JVASP-25084,W,223,Pm-3n,cubic,3D,0.0163,0.0186,-17.957328,-17.719732,1131.288237,1088.3586,3508244.4,3466232.7,0.012680565,0.01227402,8.09E-07,8.09E-07,-10.814028,-10.48757
JVASP-25086,Pu,225,Fm-3m,cubic,3D,0.0096,na,-8.048822833,-7.979100433,208.7426255,205.0415977,3222154.833,3220580.167,0.00243935,0.002398408,8.85E-07,8.85E-07,-7.1011236,-6.8260281
JVASP-25087,P,2,P-1,triclinic,3D,2.7728,3.2584,-279.8561133,350.5355667,913.8103595,654.0719843,11942.3806,5245.7538,0.460736539,0.380363014,4.474651655,4.474651655,-240.9309067,373.7780667
JVASP-25088,Ge,225,Fm-3m,cubic,3D,0.0121,0.0067,-2.0225721,-1.9775037,118.0067698,112.6801928,28846883.33,28814625,0.000166409,0.000159108,9.80E-08,9.80E-08,-2.3594113,-2.4034762
JVASP-25089,Hg,166,R-3m,trigonal,3D,0.0334,0.0083,-2.12026485,-1.141402566,74.92851853,59.9673982,7843127.6,7836919,0.0004219,0.000310237,3.79E-07,3.79E-07,0.839364517,1.290488873
JVASP-25090,Se,227,Fd-3m,cubic,3D,0.0122,0.001,19.508474,19.474704,1291.139992,1299.290803,3392553.733,3425820.733,0.01512691,0.015148683,8.27E-07,8.27E-07,19.349524,19.313545
JVASP-25091,P,12,C2/m,monoclinic,3D,2.3443,2.6205,-151.5726233,353.6744367,1098.876835,1662.146273,46858.147,13556.44967,0.378287532,0.876965339,0.822870021,0.822870021,-318.0429767,401.08328
JVASP-25092,Sb,221,Pm-3m,cubic,3D,0.012,0.0058,-1.259035,-1.3568095,36.28350056,42.09170113,22889356,22864343,6.49E-05,7.53E-05,1.22E-07,1.22E-07,-1.4827754,-1.2391079
JVASP-25093,Sr,194,P6_3/mmc,hexagonal,3D,0.0007,0.0114,32.6444403,35.73903497,1510.184349,1621.259731,931732.8267,946468.5233,0.058999477,0.063808056,3.91E-06,3.91E-06,22.18100333,23.82254767
JVASP-25094,Si,63,Cmcm,orthorhombic,3D,0.0005,0.0003,3.349465,3.271215133,278.6497889,266.1487393,22141048.67,22170859.33,0.000605048,0.000576211,1.31E-07,1.31E-07,na,na
JVASP-25095,H2,139,I4/mmm,tetragonal,3D,9.0304,14.23,-308.4878567,355.82371,2906.580018,1013.150172,30144.99233,8173.3503,1.239961954,0.553879092,1.063089786,1.063089786,na,na
JVASP-25096,Ac,225,Fm-3m,cubic,3D,0.0148,0.0201,5.9150208,5.8307271,158.4565094,154.3564901,4528950.067,4540246.833,0.001429388,0.001395479,6.18E-07,6.18E-07,na,na
JVASP-25098,La,229,Im-3m,cubic,3D,0.003,na,-8.6067821,-8.8873962,416.1496525,443.1376168,5617821.3,5610344.567,0.003327137,0.003550064,4.87E-07,4.87E-07,na,na
JVASP-25099,Ce,229,Im-3m,cubic,3D,0.0015,na,-3.5924223,-3.4640772,82.1527152,76.32419772,6365714.467,6360439.467,0.000500319,0.000463991,4.52E-07,4.52E-07,1.9293874,2.0320956
JVASP-25101,Ga,64,Cmce,orthorhombic,2D,0.0005,0.0036,-0.763077298,-0.93608252,40.638045,44.06105447,26313499.33,26297617.67,6.62E-05,7.18E-05,1.06E-07,1.06E-07,na,na
JVASP-25103,Ba,191,P6/mmm,hexagonal,3D,0.037,0.0012,-8.592064853,-9.155161867,599.3188883,610.8808717,1972047.667,1962047.033,0.008726273,0.008945637,1.55E-06,1.55E-06,na,na
JVASP-25104,Cl2,64,Cmce,orthorhombic,0D,2.3192,3.7327,-356.6738767,472.07401,1641.326484,1468.320413,11996.52906,6602.462667,0.852131662,0.837666139,7.972093739,7.972093739,na,na
JVASP-25105,Ca,140,I4/mcm,tetragonal,3D,0.0002,0.0007,23.96363133,24.24226967,803.9192009,832.8115541,1476872.333,1495504.2,0.021487364,0.022153573,2.03E-06,2.03E-06,na,na
JVASP-25109,O2,12,C2/m,monoclinic,3D,1.5083,2.8921,-481.48472,411.8467067,804.6727095,858.9610395,3661.771133,4995.965167,0.459423486,0.488602832,11.59507335,11.59507335,na,na
JVASP-25110,Se,63,Cmcm,orthorhombic,2D,0.0013,0.0013,6.81905989,7.09726037,193.1221957,191.2058154,13093064.73,13063995.34,0.006399023,0.006810047,7.48E-06,7.48E-06,na,na
JVASP-25111,Br,139,I4/mmm,tetragonal,3D,0.0022,0.0014,2.838632333,2.8866564,125.7529782,124.3350423,11852812.2,11884073.23,0.000303917,0.000302977,3.58E-05,3.58E-05,na,na
JVASP-25114,K,225,Fm-3m,cubic,3D,0.0334,0.0429,-9.403788333,-9.5455422,322.6537207,328.4967523,3648639.767,3605204.267,0.003579793,0.003681339,7.75E-07,7.75E-07,na,na
JVASP-25116,C,214,I4_132,cubic,3D,0.0079,0.4679,17.474941,17.322573,1970.404745,1942.70744,6452440.5,6474147.7,0.012929927,0.012717943,4.30E-07,4.30E-07,na,na
JVASP-25117,Li,166,R-3m,trigonal,3D,0.0018,0.0011,0.086744,-0.039215967,23.46949041,23.29447763,8678642.167,8679209.933,0.000110554,0.000109614,3.24E-07,3.24E-07,na,na
JVASP-25118,Np,229,Im-3m,cubic,3D,0.0241,na,17.00751633,17.00144,2781.411944,2782.538524,9615757.933,9626530.067,0.01167369,0.011664104,2.89E-07,2.89E-07,na,na
JVASP-25119,O2,161,R3c,trigonal,3D,2.1832,3.5984,-345.2059867,470.4433433,1322.021813,1026.114945,10062.2214,4631.1214,0.691101272,0.598756868,8.408209125,8.408209125,na,na
JVASP-25120,Co,225,Fm-3m,cubic,3D,0.0017,na,-6.033320767,-6.073422767,394.1537025,399.1162999,10828113,10820129,0.001507461,0.001527591,2.59E-07,2.59E-07,na,na
JVASP-25121,Ag,194,P6_3/mmc,hexagonal,3D,0.0041,0.0154,-1.108794713,-1.422901373,48.1964273,52.48879145,16263992,16244968.67,0.000126862,0.000137881,1.71E-07,1.71E-07,-1.023577309,-1.170242817
JVASP-25123,Sb,139,I4/mmm,tetragonal,3D,0.0005,0.0035,-2.368562767,-2.388135433,141.0997975,143.1402633,24070287,24036750,0.000234806,0.000238489,1.18E-07,1.18E-07,na,na
JVASP-25124,Si,194,P6_3/mmc,hexagonal,3D,0.009,0.0017,-1.522127733,-1.483446667,258.8042747,255.5337848,39443723.33,39399871,0.000247005,0.000244619,7.38E-08,7.38E-08,na,na
JVASP-25125,Ho,166,R-3m,trigonal,3D,0.0004,na,-2.9892067,-3.169074367,231.6862974,231.6371352,2749124.633,2746975.4,0.003490661,0.003497616,1.02E-06,1.02E-06,na,na
JVASP-25126,Tm,229,Im-3m,cubic,3D,0.0575,0.1086,-21.003575,-21.204087,1795.944297,1823.49415,4071049.833,4055694.367,0.018805067,0.019154496,6.80E-07,6.80E-07,na,na
JVASP-25127,Ca,221,Pm-3m,cubic,3D,0.0179,0.008,-12.588487,-13.026608,431.7964706,458.5158641,2724783.6,2702039.4,0.006553672,0.007015428,1.03E-06,1.03E-06,-8.8798253,-9.0576605
JVASP-25128,Dy,229,Im-3m,cubic,3D,0.0552,0.0458,-24.41753667,-24.566239,2786.027931,2808.066788,4672849.233,4652968.233,0.025309252,0.025598062,6.14E-07,6.14E-07,na,na
JVASP-25129,Er,229,Im-3m,cubic,3D,0.0788,0.0209,-22.690276,-22.834618,2219.311957,2238.387606,4310610.633,4292870.533,0.021585252,0.021836043,6.46E-07,6.46E-07,na,na
JVASP-25130,Pu,229,Im-3m,cubic,3D,0.0132,na,5.610405233,5.741138767,222.2791892,232.8678926,7061717.533,7065022.1,0.001159595,0.001214657,4.12E-07,4.12E-07,1.9298688,2.0552602
JVASP-25132,Si,69,Fmmm,orthorhombic,3D,0.0002,0.0002,-2.2388401,-2.288438633,262.5256493,263.5845896,14221739.67,14203565.67,0.000768988,0.000776786,2.02E-07,2.02E-07,-0.8278783,-0.693505233
JVASP-25133,Mg,229,Im-3m,cubic,3D,0.0095,0.0056,-4.8957311,-4.959535933,358.7609723,366.8745771,14968217.33,14915421.67,0.000977668,0.001003579,1.87E-07,1.87E-07,-5.1909314,-5.1645292
JVASP-25134,Th,229,Im-3m,cubic,3D,0.0052,0.0054,-19.095056,-18.593636,2874.608984,2708.452279,7883823.733,7834161.833,0.013581911,0.012825163,3.70E-07,3.70E-07,-18.970857,-18.733306
JVASP-25135,Tb,229,Im-3m,cubic,3D,0.036,0.0363,-20.04848433,-20.253865,1947.849481,1981.171281,4846099.233,4829544.833,0.017304821,0.017656352,5.78E-07,5.78E-07,na,na
JVASP-25137,Se,229,Im-3m,cubic,3D,0.0026,0.0222,2.133040633,2.155730033,91.20216054,93.23004612,20045037.33,20061673.33,0.000184802,0.000188815,1.40E-07,1.40E-07,2.2098038,2.1955261
JVASP-25138,N2,194,P6_3/mmc,hexagonal,3D,2.3402,0.0004,-350.81964,502.6753867,1653.971652,585.576798,13254.02233,2302.216633,0.857781252,0.344295679,1.938058272,1.938058272,-245.64034,358.8352033
JVASP-25139,Rb,64,Cmce,orthorhombic,3D,0.0049,na,-2.57579054,-4.372433867,46.88877585,75.59875142,2552441.467,2539375.133,0.000797352,0.001281764,1.08E-06,1.08E-06,na,na
JVASP-25140,Na,229,Im-3m,cubic,3D,0.0122,0.0476,-6.2990143,-6.3184913,295.8086636,295.6607464,7455309.9,7405713.133,0.001609549,0.001619367,3.79E-07,3.79E-07,-6.2870951,-6.290462
JVASP-25141,Ge,148,R-3,trigonal,3D,0.0019,na,-53.58115567,-51.72675633,3143.585098,2646.948706,1072503.757,965649.21,0.102489438,0.090070948,2.87E-06,2.87E-06,-59.35305067,-55.74079967
JVASP-25142,Fe,194,P6_3/mmc,hexagonal,3D,0.0013,0.0023,-0.1328428,-0.1204645,288.0385046,291.137808,9975550.767,9976408.5,0.001066452,0.001076992,2.88E-07,2.88E-07,-0.456857267,-0.4533516
JVASP-25143,Ga,139,I4/mmm,tetragonal,3D,0.0095,0.0029,-0.056314419,-0.010636444,20.62558794,21.68539903,27814985.33,27811041.67,3.06E-05,3.21E-05,1.02E-07,1.02E-07,-0.047323687,-0.11044268
JVASP-25144,P,64,Cmce,orthorhombic,3D,0.0386,1.2812,-152.44245,83.57107767,1987.109813,574.1269581,101105.753,83598.32967,0.421122983,0.127627538,0.000195097,0.000195097,-171.0711167,110.87964
JVASP-25145,As,64,Cmce,orthorhombic,2D,0.0221,0.6495,-111.2003493,136.438668,1253.753461,1389.211559,107228.6,62910.26733,0.208969626,0.335566453,0.000262366,0.000262366,-147.79361,156.7021713
JVASP-25146,Nd,225,Fm-3m,cubic,3D,0.0185,na,0.470806967,0.224437453,1.042843791,0.23708337,4704716.933,4706634,9.35E-06,2.13E-06,5.88E-07,5.88E-07,na,na
JVASP-25151,Si,206,Ia3,cubic,3D,0.0758,0.2105,-50.992577,22.095,395.3893658,73.13550345,152058.6267,149809.8067,0.040334083,0.008249888,2.51E-05,2.51E-05,-90.481662,-28.444488
JVASP-25152,C,166,R-3m,trigonal,2D,0.0985,0.5114,-181.86718,181.8803233,5345.569676,5407.708589,140422.262,152277.512,1.005832411,0.999708239,0.193085627,0.193085627,-181.8950367,184.5850933
JVASP-25153,Cr,223,Pm-3n,cubic,3D,0.0043,na,-4.3651415,-4.2483841,47.26156677,44.73467693,2480341.4,2478544.7,0.000737075,0.000699255,1.14E-06,1.14E-06,-4.423696,-4.4759558
JVASP-25154,Tb,194,P6_3/mmc,hexagonal,3D,0.0058,0.0011,-4.519573133,-4.967185267,169.7283224,172.3228926,4525126.267,4522504.467,0.002114667,0.00220346,6.82E-07,6.82E-07,3.1084585,2.5793706
JVASP-25155,Sr,191,P6/mmm,hexagonal,3D,0.0015,0.0103,-4.587173233,-4.491440967,169.4044311,221.876967,1752287.533,1746105.567,0.004271571,0.005671684,1.61E-06,1.61E-06,-16.74520933,-15.43183233
JVASP-25158,Ce,194,P6_3/mmc,hexagonal,3D,0.0011,na,14.3037031,14.30520117,1101.461034,1110.969817,3273362.5,3281919.1,0.011942591,0.012036909,8.77E-07,8.77E-07,15.41099167,15.23505783
JVASP-25160,Ce,194,P6_3/mmc,hexagonal,3D,0.0021,na,11.62859717,11.6962587,1297.093804,1318.641558,4898595.8,4907390.6,0.008249527,0.008374629,5.96E-07,5.96E-07,15.18156117,15.1640061
JVASP-25161,Pb,194,P6_3/mmc,hexagonal,3D,0.0013,na,-1.565209283,-1.62112678,184.0391816,208.5403557,14622482.67,14602766.33,0.000468053,0.000532339,1.94E-07,1.94E-07,0.292503583,0.710128507
JVASP-25163,Sm,225,Fm-3m,cubic,3D,0.0018,na,-1.432731367,-1.895441433,4.433708725,7.759276077,2159877.667,2159710.6,9.73E-05,0.000170467,1.24E-06,1.24E-06,4.0039453,3.5755458
JVASP-25164,Ca,92,P4_12_12,tetragonal,3D,0.0037,0.0017,10.819229,14.28819567,451.5793701,535.9109671,1243468.433,1248536.267,0.010346831,0.012588164,3.08E-06,3.08E-06,-25.081035,-23.561874
JVASP-25166,Pb,229,Im-3m,cubic,3D,0.0082,0.0101,-3.598056533,-3.643077867,228.4775554,233.6644344,17648491,17605797.67,0.000529355,0.000542999,1.60E-07,1.60E-07,-4.1819574,-4.2500104
JVASP-25167,He,194,P6_3/mmc,hexagonal,3D,17.7328,32.1886,-484.7528,601.11245,1142.366107,513.7128574,5481.000467,1435.742,0.627598013,0.305322804,10.26357918,10.26357918,-255.7584,601.6474333
JVASP-25168,Bi,12,C2/m,monoclinic,3D,0.0014,0.0012,-3.018072433,-3.493085867,177.7884217,208.7938523,11607551.67,11578029,0.000544219,0.000650416,2.62E-07,2.62E-07,-2.84879985,-2.936739033
JVASP-25169,H2,194,P6_3/mmc,hexagonal,3D,2.7987,0.0023,-163.4354233,467.89218,641.9569489,663.7151783,24038.466,3095.359467,0.298315596,0.388825821,1.151494183,1.151494183,-211.8451467,470.13514
JVASP-25170,H2,194,P6_3/mmc,hexagonal,3D,8.5908,13.5252,-191.8758433,440.6855633,1283.189171,1520.142748,38171.14667,7392.746833,0.521077698,0.831351123,1.274001256,1.274001256,-356.1045033,371.9516033
JVASP-25171,C,206,Ia3,cubic,3D,2.7427,3.3186,-114.2675767,252.26394,647.9746975,2539.025734,49626.31333,39898.517,0.241601152,1.063928369,0.43654847,0.43654847,-116.39701,227.7066
JVASP-25172,N2,205,Pa3,cubic,3D,7.1651,9.3518,-342.85222,503.42657,1660.26233,414.260253,14124.165,1634.5605,0.871010366,0.247390178,1.675137439,1.675137439,-397.13323,520.13169
JVASP-25173,Si,225,Fm-3m,cubic,3D,0.0061,0.0054,-2.0560506,-2.145392633,208.3592763,226.6271911,49288459.33,49237778,0.000173665,0.000189037,5.64E-08,5.64E-08,-2.6695947,-2.6414067
JVASP-25174,Si,191,P6/mmm,hexagonal,3D,0.0028,0.0042,-1.29201487,-1.350788477,76.53452212,81.62001542,29169570.67,29140838.67,9.53E-05,0.000101721,9.98E-08,9.98E-08,na,na
JVASP-25175,Sc,139,I4/mmm,tetragonal,3D,0.0041,0.0039,18.973357,18.415491,485.2566477,458.1674417,1347979.167,1351007.2,0.020796935,0.019656039,1.88E-06,1.88E-06,13.211445,12.838397
JVASP-25177,Zr,229,Im-3m,cubic,3D,0.0105,0.0119,-6.6766226,-6.4410648,331.8971201,308.5740889,7445430.733,7437793.533,0.001676206,0.001561408,3.88E-07,3.88E-07,-3.2816665,-3.0836057
JVASP-25180,Ca,225,Fm-3m,cubic,3D,0.096,na,-11.51330233,-8.926568833,241.2792389,144.40244,1820204.3,1812197.033,0.003792802,0.002266623,1.80E-06,1.80E-06,-2.5721251,-2.2441607
JVASP-25181,Ti,194,P6_3/mmc,hexagonal,3D,0.0087,0.0129,-24.153456,-24.076936,1670.793931,1653.291494,2858331.6,2843616.333,0.022745023,0.022654337,9.91E-07,9.91E-07,-15.152008,-15.012117
JVASP-25182,C,194,P6_3/mmc,hexagonal,3D,3.7645,4.7622,-194.81451,172.9232033,2087.865686,1534.353485,56121.77767,51097.93833,0.745998049,0.561462169,0.715388836,0.715388836,-145.27223,177.63977
JVASP-25183,C,194,P6_3/mmc,hexagonal,2D,0.0307,na,-123.4800783,131.636563,2151.180507,1801.689562,219092.2379,178934.0533,0.219477837,0.190144296,0.001809029,0.001809029,-90.75178867,96.43899633
JVASP-25184,Nd,229,Im-3m,cubic,3D,0.0076,0.001,-13.71057967,-13.944465,1048.428701,1082.006767,5577341.9,5564501.5,0.008223578,0.008508211,4.97E-07,4.97E-07,na,na
JVASP-25185,Li,225,Fm-3m,cubic,3D,0.0108,0.0023,-2.618168033,-2.682697533,62.64139044,65.67472531,9138319.9,9125461.667,0.000280555,0.000294581,3.07E-07,3.07E-07,na,na
JVASP-25191,Mn,213,P4_132,cubic,3D,0.0037,0.0107,-21.889919,-21.600832,240.5267104,233.7847104,501966.81,501043.17,0.015044045,0.014638878,6.11E-06,6.11E-06,-9.1321193,-8.9137861
JVASP-25192,S,154,P3_221,trigonal,3D,1.9581,2.9665,-253.3539567,303.3159833,1816.559574,1378.032186,23743.84457,13992.3699,0.782727691,0.689465287,1.258221449,1.258221449,-329.5335033,332.6417533
JVASP-25196,S,15,C2/c,monoclinic,3D,1.9379,na,-245.3239333,293.79817,816.3816503,774.5949838,13640.8318,8981.420933,0.450727318,0.437848595,1.46089306,1.46089306,-270.0734633,342.9610967
JVASP-25202,Sn,139,I4/mmm,tetragonal,3D,0.0007,0.0043,-2.1796899,-2.193740167,117.7097124,119.0109544,22712081.67,22678127.67,0.000205025,0.000207653,1.25E-07,1.25E-07,-2.061939533,-2.068123733
JVASP-25203,O2,61,Pbca,orthorhombic,3D,0.9965,na,-306.8022333,464.2468133,505.8687696,51.34018092,4942.153433,244.35335,0.289786472,0.03078544,4.166781309,4.166781309,-402.6391167,529.3031933
JVASP-25205,F2,12,C2/m,monoclinic,3D,2.3022,3.6086,-338.2731233,455.8680633,1322.883253,740.4427409,11728.35223,3699.1154,0.665003547,0.425871253,4.338859692,4.338859692,-319.4588567,532.3316967
JVASP-25208,Sb,140,I4/mcm,tetragonal,3D,0.0013,0.0007,4.318209467,4.537256367,125.395921,130.9257229,8232584.067,8259651.5,0.000748683,0.000838758,5.63E-07,5.63E-07,2.575684933,2.483254267
JVASP-25209,Sc,140,I4/mcm,tetragonal,3D,0.0015,0.0005,-1.847982867,-1.826941833,4.037961046,4.142191308,1162605,1162045.1,0.00013136,0.000150208,2.43E-06,2.43E-06,5.692499967,5.612964733
JVASP-25210,Te,154,P3_221,trigonal,3D,0.0282,0.6144,-168.1027933,240.66101,3075.095852,4286.471986,110848.475,72624.36733,0.511874275,1.05316892,0.005171462,0.005171462,-247.7573267,257.2790367
JVASP-25212,Li,220,I-43d,cubic,3D,0.0133,na,19.138553,19.75091,2534.027868,2733.692385,6918201.2,7007698.733,0.013777832,0.014875651,4.19E-07,4.19E-07,24.003322,24.553414
JVASP-25213,Kr,194,P6_3/mmc,hexagonal,3D,7.258,10.8271,-98.112785,478.28298,742.075457,1115.951413,74389.24767,4817.5536,0.220829389,0.643252925,0.421666977,0.421666977,-135.1379767,545.1291733
JVASP-25217,Bi,221,Pm-3m,cubic,3D,0.0231,0.0255,-3.728651367,-11.916084,3278505.266,32291112.24,2.36E+11,2.27E+11,0.000524918,0.005681783,1.06E-11,1.06E-11,na,na
JVASP-25218,Pr,152,P3_121,trigonal,3D,0.0057,na,1.014381867,1.047283233,420.8602117,398.9389534,2991418.333,2994036.667,0.005623118,0.005324013,9.51E-07,9.51E-07,na,na
JVASP-25219,Na,220,I-43d,cubic,3D,0.01,0.0115,2.793848,3.406270433,43.65705828,65.18764367,5454088.733,5483635.767,0.000308979,0.000463536,5.19E-07,5.19E-07,15.689604,16.492173
JVASP-25220,Sr,140,I4/mcm,tetragonal,3D,0.0097,0.0027,31.19442067,34.696187,684.9136886,904.6915107,628543.1233,644389.8233,0.02812478,0.036492701,5.18E-06,5.18E-06,20.739545,22.27811367
JVASP-25223,Ar,194,P6_3/mmc,hexagonal,3D,8.7123,13.6528,-121.2358267,514.3712667,777.201426,858.5262787,53091.97667,3191.608633,0.281024537,0.499835077,0.479966272,0.479966272,-148.9617667,568.7658633
JVASP-25224,Fe,221,Pm-3m,cubic,3D,0.0002,0.0007,0.390799033,0.376973967,144.6206066,134.431568,6184493.833,6186779.2,0.000936542,0.000871917,4.55E-07,4.55E-07,-22.677507,-22.683215
JVASP-25225,C,65,Cmmm,orthorhombic,3D,0.3855,0.8706,-106.6805133,-17.18937667,1735.669074,1655.625387,67403.00933,59819.18967,0.443882607,0.467863028,0.000246466,0.000246466,-116.3066667,-12.52820367
JVASP-25226,N2,167,R-3c,trigonal,3D,7.0725,9.1605,-372.9525467,385.6533433,387.9964616,212.4059572,2774.705133,1471.979067,0.230207687,0.126390746,6.0717786,6.0717786,-399.51491,418.0068433
JVASP-25227,Bi,229,Im-3m,cubic,3D,0.0134,0.0106,-1.538471233,-1.552505767,47.45489473,48.27779535,20049440.33,20030001.67,9.67E-05,9.85E-05,1.40E-07,1.40E-07,na,na
JVASP-25229,C,191,P6/mmm,hexagonal,2D,0.0801,0.0478,-3.655962733,3.723412113,11.30791593,3.396005391,746260.07,738941.65,0.000452522,0.000748686,1.24E-05,1.24E-05,-6.771404867,7.8838905
JVASP-25230,Pr,139,I4/mmm,tetragonal,3D,0.0074,na,-1.493837767,-1.7403564,167.7216751,167.3122567,5415402.4,5413601.067,0.001315147,0.00132293,5.18E-07,5.18E-07,na,na
JVASP-25232,Hg,139,I4/mmm,tetragonal,3D,0.02,0.2646,-22.84117133,-21.76233967,1771.777147,1537.817081,3456191.367,3296286.7,0.020831647,0.019371548,8.84E-07,8.84E-07,-29.454999,-29.006325
JVASP-25237,Ga,220,I-43d,cubic,3D,0.0066,na,-0.60211331,-0.712884743,7.008396339,9.820528332,19331350.67,19323963.67,1.50E-05,2.10E-05,1.46E-07,1.46E-07,-4.0866904,-4.1827419