JID,Composition,Spg.numb.,Spg.symb.,Cryst.,Dimensionality,OPT SCF gap, MBJ gap,n-Seebeck,p-Seebeck,n-powerfact,p-powerfact,n-cond,p-cond,n-ZT,p-ZT,Avg.elec.mass,Avg.hole mass,n-mp-Seeb,p-mp-Seeb
JVASP-9580,GaPO4,152,P3_121,trigonal,3D,4.6565,na,-108.7097667,464.80671,689.5444548,215.7516399,60429.319,990.3968733,0.233478204,0.128904941,0.427390205,0.427390205,-136.2406267,473.2274267
JVASP-9581,Li2ZrO3,15,C2/c,monoclinic,3D,4.0349,4.9819,-204.3972,432.3217267,1449.484122,1011.898207,34948.15633,5280.6766,0.538675354,0.578495427,0.929695008,0.929695008,-225.94865,426.02984
JVASP-9582,TaNO,14,P2_1/c,monoclinic,3D,2.0082,3.0375,-176.79408,397.50519,889.3218495,2246.208697,28860.01033,14220.79087,0.393183354,1.178165262,0.8241206,0.8241206,-206.2527367,388.8196933
JVASP-9583,Ge2N2O,36,Cmc2_1,orthorhombic,3D,2.701,4.3293,-92.205597,381.5040067,604.7939695,1018.230522,70907.65667,7140.9915,0.187133872,0.572961214,0.334898495,0.334898495,-88.83283433,418.24809
JVASP-9584,CaSnO3,148,R-3,trigonal,3D,3.1112,na,-109.23229,471.3614933,682.3913001,884.7270505,57138.10267,3991.387567,0.23686058,0.521176023,0.414324934,0.414324934,-102.6099433,485.47792
JVASP-9585,Ag3PO4,218,P-43n,cubic,3D,0.3684,na,-118.246,322.87669,828.6734994,1665.054883,59266.671,15971.848,0.283796959,0.785325103,0.021993449,0.021993449,-102.575,273.36945
JVASP-9586,ScPO4,141,I4_1/amd,tetragonal,3D,4.5869,4.861,-477.3327133,367.5517,1155.183604,1279.845794,5266.6045,9960.298333,0.66923479,0.677872954,11.05633351,11.05633351,-473.1552067,372.3161867
JVASP-9587,BaZnO2,152,P3_121,trigonal,3D,2.4947,na,-110.2395133,415.6105467,729.4607425,632.9521392,59659.59733,3665.370133,0.248677342,0.369658466,0.412236752,0.412236752,-100.1902133,440.48388
JVASP-9589,Hg(CO2)2,14,P2_1/c,monoclinic,2D,2.802,na,-340.0570967,460.0934333,1690.607758,628.4502337,14320.40533,2964.1377,0.896392757,0.371037243,1.70464032,1.70464032,-342.9909167,468.6035033
JVASP-9590,K2S2O5,11,P2_1/m,monoclinic,3D,3.2482,na,-328.1271133,394.7041867,473.6784054,251.9287735,4219.699767,1594.1027,0.276423649,0.149742418,4.428158706,4.428158706,-307.7593233,411.2933133
JVASP-9591,Ho2CdSe4,227,Fd-3m,cubic,3D,0.3909,na,-59.74036733,283.68751,348.7213752,2299.741519,97710.85,28575.813,0.089801952,1.062728672,0.192657062,0.192657062,-64.296286,282.9686
JVASP-9592,Tm2CdS4,227,Fd-3m,cubic,3D,1.1554,na,-72.91445133,308.53821,454.1940937,2312.999379,85430.75767,24297.277,0.127820464,1.114298327,0.253020703,0.253020703,-74.202184,307.74433
JVASP-9593,Cr2CdS4,227,Fd-3m,cubic,3D,0.3875,na,-74.89300067,364.5253,325.1333055,1269.250069,57966.756,9551.945667,0.103398089,0.708583927,0.185257758,0.185257758,-103.73528,377.63269
JVASP-9595,NaCdF3,161,R3c,trigonal,3D,3.5652,6.9611,-148.32896,409.61668,1026.101886,1754.188973,47057.01933,10448.6195,0.395076877,0.98878508,0.710989251,0.710989251,-126.1830067,425.7114133
JVASP-9596,CdCO3,167,R-3c,trigonal,3D,2.9861,5.1879,-168.0480533,390.8158967,1165.251868,1824.027227,42001.55567,11797.5353,0.44153565,0.983522605,1.020189478,1.020189478,-152.1994167,406.7544167
JVASP-9598,NaNbO3,127,P4/mbm,tetragonal,3D,1.6558,2.309,-213.90428,385.1612867,3571.202927,2228.939995,76666.14533,15026.557,1.088448995,1.161184584,0.299421782,0.299421782,-255.64355,389.9527367
JVASP-9599,Ag3AsS3,161,R3c,trigonal,3D,1.0559,1.8911,-262.13139,151.1680633,2350.046335,980.5689996,33261.46133,42710.14,1.017831866,0.385751428,0.385794986,0.385794986,-247.80878,156.6172667
JVASP-9600,TlNO2,152,P3_121,trigonal,3D,1.4998,2.4296,-201.0828,380.03075,917.0840977,674.0753171,20776.31553,4655.804733,0.43045472,0.397583848,1.119277768,1.119277768,-225.54896,409.9020233
JVASP-9601,CuSbS2,62,Pnma,orthorhombic,3D,0.8288,na,-308.99587,360.1925267,4081.032056,1565.198509,39522.86467,11688.3357,1.677448744,0.817421193,0.768113874,0.768113874,-304.69308,341.4586467
JVASP-9602,NaSbO3,148,R-3,trigonal,3D,2.7629,4.1768,-112.7214933,500.0912267,729.8384431,336.2200083,57121.35567,1333.821367,0.250650404,0.199951962,0.458299285,0.458299285,-108.1564867,515.1610967
JVASP-9603,Si2N2O,36,Cmc2_1,orthorhombic,3D,5.1237,na,-116.46813,361.2230467,775.3105912,976.0493445,57408.39467,7467.3775,0.27166502,0.535459521,0.475465026,0.475465026,-115.3653867,341.84816
JVASP-9604,NaNbO3,161,R3c,trigonal,3D,2.7552,3.297,-374.0616933,454.6883267,3451.955373,1676.059842,24742.08233,8107.694767,1.669336383,0.956238271,1.136405374,1.136405374,na,na
JVASP-9605,Ag3SbS3,161,R3c,trigonal,3D,0.9578,na,-256.2849333,139.3192067,2581.311066,917.564239,36453.41967,47043.64067,1.080835996,0.348378878,0.648981742,0.648981742,-213.4211433,142.936
JVASP-9606,Li8SnO6,148,R-3,trigonal,3D,4.1146,5.6512,-160.1395967,504.7678533,890.2000348,739.7093858,34724.953,2934.8473,0.377942432,0.436419234,0.707982814,0.707982814,-144.28213,471.9749233
JVASP-9607,Cd2SiO4,70,Fddd,orthorhombic,3D,1.687,3.477,-84.13050333,460.8945633,545.3283069,1024.492287,76637.82033,4825.902933,0.160800524,0.593418809,0.287766233,0.287766233,-81.98019967,451.34347
JVASP-9608,NaNO3,167,R-3c,trigonal,3D,3.0296,4.5122,-325.7461967,530.8724833,987.2588673,721.4397182,9396.030567,2711.274157,0.535884837,0.425439113,3.747588736,3.747588736,-319.9819133,526.76838
JVASP-9609,Na2SiO3,36,Cmc2_1,orthorhombic,3D,4.147,7.0127,-160.2154833,436.86037,1170.096896,864.4874094,45660.349,4443.153367,0.460060908,0.506835113,0.78981788,0.78981788,-119.2497667,437.7605567
JVASP-9610,NaCO2,14,P2_1/c,monoclinic,3D,3.3296,4.788,-315.8232567,493.2529,680.6900596,398.6251602,6994.687267,1942.98461,0.385086611,0.236255411,3.483711234,3.483711234,-389.7474533,505.97426
JVASP-9611,SrSiN2,14,P2_1/c,monoclinic,3D,3.2007,na,-241.2663133,325.2991667,1324.145542,1606.723822,21538.09333,15734.88293,0.611957799,0.798412809,0.53955211,0.53955211,-106.9089433,334.3451067
JVASP-9612,Li4GeO4,63,Cmcm,orthorhombic,3D,4.2931,6.3176,-162.7056833,455.6503767,1024.531753,1012.768674,38810.64367,4989.8683,0.423002944,0.579264881,0.794063064,0.794063064,-139.5159967,464.23047
JVASP-9613,Sr2GeS4,11,P2_1/m,monoclinic,3D,2.2071,na,-234.9438067,231.7893667,1399.766964,1721.242103,22669.89187,25926.87317,0.635930942,0.642560531,1.774778245,1.774778245,-228.89104,232.84592
JVASP-9614,Tl3BO3,176,P6_3/m,hexagonal,3D,1.4292,na,-174.3888,293.4841167,1496.906742,1734.124104,49435.15267,19833.41833,0.472819086,0.883201494,0.388561922,0.388561922,-186.5434433,276.73329
JVASP-9615,Mg(GaO2)2,227,Fd-3m,cubic,3D,3.4099,5.2884,-80.791819,498.17671,521.648056,1229.449509,79917.67133,4953.861467,0.151136509,0.713638018,0.266707467,0.266707467,-80.113933,501.16776
JVASP-9616,TaBO4,141,I4_1/amd,tetragonal,3D,3.5443,4.6558,-448.16649,329.24282,1126.791678,1342.432413,5651.266767,12829.373,0.650123624,0.711228615,5.14950765,5.14950765,-446.3780967,332.74849
JVASP-9617,CoAsS,29,Pca2_1,orthorhombic,3D,0.8182,0.7928,-443.2221767,374.2235433,2721.86202,2327.189594,13848.462,16656.963,1.430604224,1.238399113,2.708663308,2.708663308,-412.3554,337.2189633
JVASP-9619,PdSe2O5,15,C2/c,monoclinic,2D,0.9026,na,-323.5456933,341.9630667,1047.301472,1250.135625,11373.222,9664.703841,0.56502881,0.652055587,19.53463699,19.53463699,-323.5784133,354.0789567
JVASP-9620,Y(Al2Fe)4,139,I4/mmm,tetragonal,3D,0.0015,na,-1.085039667,-1.2019693,131.1520756,126.3650262,1257410.987,1258175.837,0.004922748,0.004768287,2.38E-06,2.38E-06,na,na
JVASP-9621,ScOF,14,P2_1/c,monoclinic,3D,4.4462,5.5033,-403.7855767,443.74111,1000.576136,2451.370974,5678.080367,13649.80877,0.570133072,1.246858472,3.93396157,3.93396157,-414.7604967,450.52622
JVASP-9639,Y(SnO2)2,166,R-3m,trigonal,3D,1.4932,na,-316.50962,404.95493,1945.586233,1470.629563,19256.45967,8997.768067,1.020604303,0.829872244,1.313305771,1.313305771,na,na
JVASP-9643,TaReO6,11,P2_1/m,monoclinic,3D,0.9444,na,-243.5667167,464.82696,3087.054744,1013.869134,57048.213,4809.0778,1.000478729,0.58519866,0.629850964,0.629850964,na,na
JVASP-9645,Al(SnO2)2,166,R-3m,trigonal,3D,0.0399,na,17.16455287,31.88058967,537.2828773,947.3929587,265502.4567,277750.4167,0.048364026,0.081794221,1.17E-05,1.17E-05,na,na
JVASP-9659,NaTaO3,127,P4/mbm,tetragonal,3D,2.3528,3.6695,-260.58751,377.3390067,4086.552755,2062.392848,59860.83567,14156.5964,1.462017638,1.079667242,0.494903341,0.494903341,-250.7124967,387.9832
JVASP-9662,Mg(CuO2)2,227,Fd-3m,cubic,3D,0.0028,0.0041,-100.2227567,-95.71268367,735.7044296,631.5228261,73243.76633,68936.63067,0.168041297,0.140323628,0.000121067,0.000121067,na,na
JVASP-9666,TiZnO2,2,P-1,triclinic,3D,0.0061,na,-281.00346,71.03896933,1183.545338,192.5892525,15947.9309,5432.261033,0.547181577,0.079582087,0.023188528,0.023188528,na,na
JVASP-9674,K3TaO8,121,I-42m,tetragonal,3D,3.2322,4.5973,-370.54248,393.5985333,931.5903843,561.0900061,6952.886833,3640.352233,0.525324041,0.330342384,3.437582563,3.437582563,-332.6001833,405.1472067