JID,Composition,Spg.numb.,Spg.symb.,Cryst.,Dimensionality,OPT SCF gap, MBJ gap,n-Seebeck,p-Seebeck,n-powerfact,p-powerfact,n-cond,p-cond,n-ZT,p-ZT,Avg.elec.mass,Avg.hole mass,n-mp-Seeb,p-mp-Seeb
JVASP-9186,Ba2YTi3O7,47,Pmmm,orthorhombic,3D,0.0009,na,-25.93438373,-25.05658807,1101.691177,1120.975391,1508269.173,1492646.717,0.031319992,0.031153884,6.56E-06,6.56E-06,na,na
JVASP-9187,Ba2YCo3O8,99,P4mm,tetragonal,3D,0.0002,na,18.72699333,18.375512,1755.068424,1748.353148,1289805.8,1285482.75,0.164788921,0.163124923,5.39E-06,5.39E-06,na,na
JVASP-9188,Ba2Ti3AlO7,47,Pmmm,orthorhombic,3D,0.0004,na,-11.55638221,-10.88526187,481.8352146,501.4801695,1378623.923,1369317.326,0.014192237,0.015071619,1.68E-05,1.68E-05,na,na
JVASP-9190,Ba2AlCu3O7,25,Pmm2,orthorhombic,3D,0.0038,na,0.722486867,0.977699633,249.0173435,276.442866,2021787.858,2005981.639,0.005570839,0.006454234,5.24E-05,5.24E-05,na,na
JVASP-9191,Ba2Mn3AlO8,123,P4/mmm,tetragonal,3D,0.0023,na,1.460552333,7.419287667,148.4264662,204.3487139,1046505.907,1033512.54,0.007025305,0.013932151,1.01E-05,1.01E-05,na,na
JVASP-9192,Ba2AlSn3O7,47,Pmmm,orthorhombic,3D,0.0006,na,-22.4080081,-24.5636747,230.7745151,262.9863462,992627.6467,978073.5533,0.032438664,0.035610871,6.22E-06,6.22E-06,na,na
JVASP-9193,Ba2AlV3O8,38,Amm2,orthorhombic,3D,0.0154,na,0.443090667,1.430883667,622.637303,583.5211286,947822.694,939338.0583,0.01344985,0.012606027,0.001299611,0.001299611,na,na
JVASP-9194,Ba2YNi3O8,99,P4mm,tetragonal,3D,0.006,na,-44.05452933,-44.944532,3189.766376,3274.232414,1780876.45,1760854.43,0.093445263,0.096806465,1.85E-06,1.85E-06,na,na
JVASP-9195,CaCoO2,1,P1,triclinic,3D,0.015,0.0062,63.480755,63.93349767,146.8935261,149.8461171,15321.08507,15815.71607,0.062134311,0.063435892,0.00027589,0.00027589,na,na
JVASP-9196,Ba2AlCr3O8,123,P4/mmm,tetragonal,3D,0.0063,na,29.005709,27.90897767,1283.763521,1323.75191,675091.7,678613.6433,0.089045115,0.089829656,4.51E-06,4.51E-06,na,na
JVASP-9198,Ba2AlFe3O8,123,P4/mmm,tetragonal,3D,0.0068,na,28.48360067,28.07243867,366.3545885,339.5603711,1076022.993,1083455.528,0.02568541,0.025488582,1.27E-05,1.27E-05,na,na
JVASP-9201,Ba2AlCo3O8,99,P4mm,tetragonal,3D,0.0005,na,-18.33679497,-18.41696232,210.9024097,199.2111447,1109434.937,1107944.183,0.025169037,0.023878772,6.49E-06,6.49E-06,na,na
JVASP-9203,Ba2AlNi3O8,99,P4mm,tetragonal,3D,0.0007,na,-4.775800067,-4.3388554,89.20154409,87.30032139,1034282.373,1032317.897,0.002678228,0.002695059,3.53E-06,3.53E-06,na,na
JVASP-9207,CaFeO2,2,P-1,triclinic,3D,0.0006,na,41.64732133,42.33942267,258.8170239,261.6414946,146897.6143,149529.6367,0.038991036,0.038877551,0.000185873,0.000185873,na,na
JVASP-9208,Ba2YMn3O7,47,Pmmm,orthorhombic,3D,0.005,na,8.801809667,7.551556967,103.5852623,65.00306844,1096914.037,1107249.468,0.003109486,0.002171478,1.44E-05,1.44E-05,na,na
JVASP-9209,Ba2YCo3O7,47,Pmmm,orthorhombic,3D,0.0018,na,15.57177333,15.07202733,857.6299962,850.1613657,1028879.007,1035766.61,0.030530548,0.030605432,5.98E-06,5.98E-06,na,na
JVASP-9212,Ba2AlCr3O7,47,Pmmm,orthorhombic,3D,0.0695,na,18.99469633,14.63858667,739.7337576,612.8852866,595657.16,601759.9733,0.070920703,0.054032853,6.74E-06,6.74E-06,na,na
JVASP-9213,Ba2AlV3O7,47,Pmmm,orthorhombic,3D,0.0015,na,7.997318333,7.752301,330.9761415,328.0282915,877865.5133,882043.68,0.013730389,0.013651539,4.71E-06,4.71E-06,na,na
JVASP-9216,Ba2YNi3O7,47,Pmmm,orthorhombic,3D,0.0022,na,-36.86227123,-37.03556393,1072.859122,1061.587044,780262.1467,771523.9933,0.065600297,0.065383726,4.30E-06,4.30E-06,na,na
JVASP-9218,MgSnO2,2,P-1,triclinic,2D,1.9015,na,-206.0982733,339.51073,1133.719458,1560.261827,24494.84067,13417.195,0.501269366,0.861387207,1.293202269,1.293202269,na,na
JVASP-9232,Zn(CoO2)4,1,P1,triclinic,3D,0.0402,na,19.95734333,48.64496033,864.7379338,979.4227151,17626.24767,19160.51633,0.298373142,0.341213869,0.002740291,0.002740291,na,na
JVASP-9234,V2ZnO6,1,P1,triclinic,3D,1.6783,1.9916,-412.4120333,257.8504233,950.8255279,1167.44849,5898.110833,15738.74827,0.544650266,0.563478607,5.121409635,5.121409635,na,na
JVASP-9235,Sr2YTlSn2O7,123,P4/mmm,tetragonal,3D,0.03,na,20.23712763,21.32237406,374.6547307,522.1622519,577390.16,598114.8467,0.01635007,0.022172644,5.88E-06,5.88E-06,na,na
JVASP-9239,Sr2YTi2TlO7,123,P4/mmm,tetragonal,3D,0.0186,na,4.768227,5.644585667,308.7617703,344.563148,601840.3433,617136.61,0.019058947,0.020330833,9.06E-06,9.06E-06,na,na
JVASP-9241,MgCr2O6,1,P1,triclinic,3D,0.0004,na,4.9355271,4.631910033,52.29210755,48.41611707,272925.0273,273665.5267,0.005678526,0.005411239,1.61E-05,1.61E-05,na,na
JVASP-9248,CaSnO2,2,P-1,triclinic,3D,1.746,na,-329.2901967,268.4376267,2034.400492,1315.732105,19015.92407,16638.97347,0.944565388,0.668856873,5.279798093,5.279798093,na,na
JVASP-9250,TiZnO2,2,P-1,triclinic,3D,0.0031,na,-288.3590567,81.80057867,1229.61879,205.9684445,15600.22213,5884.141967,0.562141977,0.08173473,0.023115872,0.023115872,na,na
JVASP-9251,ZnSnO2,2,P-1,triclinic,2D,1.7412,2.5329,-220.7613267,347.92467,1802.244473,949.3776095,34155.80167,8133.802267,0.652977266,0.534834296,1.993286551,1.993286551,na,na
JVASP-9252,MgSnO2,2,P-1,triclinic,2D,1.5504,na,-245.5176233,331.0557167,1387.184867,928.1392757,22330.3107,8208.138733,0.633590558,0.526800999,8.620162048,8.620162048,na,na
JVASP-9253,CaSnO2,2,P-1,triclinic,3D,1.7329,2.6857,-323.2313933,266.3668233,1677.351122,1310.974703,16683.34277,16366.1248,0.754572954,0.670432289,6.343513602,6.343513602,na,na
JVASP-9254,CaTiO2,12,C2/m,monoclinic,3D,0.0205,0.0834,-23.90721823,-8.870262,15.12639443,41.22509953,60457.1529,60550.5124,0.00558468,0.006892333,0.000670607,0.000670607,na,na
JVASP-9255,CaCuO2,2,P-1,triclinic,3D,0.0186,na,-39.918384,-29.07547247,124.8240005,196.0586452,39044.51573,40009.87917,0.044309656,0.04873047,0.001374792,0.001374792,na,na
JVASP-9257,Sr2YTlCr2O7,123,P4/mmm,tetragonal,3D,0.0172,na,-19.99104073,-17.36242038,201.7292599,190.206031,445793.93,441714.0667,0.028255273,0.028049851,8.62E-06,8.62E-06,na,na
JVASP-9258,Sr2AlTlV2O7,99,P4mm,tetragonal,3D,0.0254,na,-45.24480167,-46.32177767,735.0891698,763.8493905,736875.9027,723002.349,0.070581651,0.073026907,1.32E-05,1.32E-05,na,na
JVASP-9262,Sr2YTlFe2O7,123,P4/mmm,tetragonal,3D,0.0021,na,9.735383687,9.481524633,60.41460885,56.40232449,932948.3,933707.53,0.009005071,0.008215428,5.25E-06,5.25E-06,na,na
JVASP-9263,Ba2YTi2TlO7,123,P4/mmm,tetragonal,3D,0.0083,na,10.23460933,9.361233,364.9418439,404.6777958,546264.94,562839.6567,0.021054308,0.024405689,8.25E-06,8.25E-06,na,na
JVASP-9264,Sr2YTlNi2O7,123,P4/mmm,tetragonal,3D,0.014,na,6.884162667,6.510353333,1683.727464,1544.945782,800204.3,803009.9933,0.116577923,0.105309137,3.63E-06,3.63E-06,na,na
JVASP-9265,Ba2Ti2TlO7,123,P4/mmm,tetragonal,3D,0.1384,0.1233,26.13742633,24.04092233,298.3124506,274.4570685,1038928.599,1054407.188,0.008773033,0.007967846,0.000736787,0.000736787,na,na
JVASP-9266,Mg(MoO2)4,8,Cm,monoclinic,3D,0.0028,na,37.13072003,43.46903833,100.1506886,132.3635647,633861.426,638682.4673,0.018508169,0.025399103,0.000160241,0.000160241,na,na
JVASP-9268,Ba2TlSn2O7,123,P4/mmm,tetragonal,3D,0.6508,na,69.55024333,65.23399267,932.2039511,854.4656744,461107.47,469465.3537,0.233082872,0.216161724,1.60E-05,1.60E-05,na,na
JVASP-9271,MnZnO2,2,P-1,triclinic,3D,0.1162,0.0017,-85.230068,-81.351761,788.1399761,618.8349917,108519.03,94360.08533,0.166115149,0.13619605,5.12E-05,5.12E-05,na,na
JVASP-9272,MgMnO2,2,P-1,triclinic,3D,0.039,na,-63.901173,-53.157555,283.7016932,179.6260151,61479.706,46672.78933,0.082766594,0.059416269,8.30E-05,8.30E-05,na,na
JVASP-9278,Mg(SnO2)4,1,P1,triclinic,3D,1.5726,na,-230.79766,301.1091067,1395.526801,1017.864541,25812.1924,10361.26843,0.603260044,0.52189461,5.510547441,5.510547441,na,na
JVASP-9279,Ca(BiO2)4,8,Cm,monoclinic,3D,0.0091,0.9696,-243.33838,383.2267867,972.0786797,527.0911002,11596.08467,3592.9347,0.478358575,0.307326585,2.342739127,2.342739127,na,na
JVASP-9280,Mg(BiO2)4,1,P1,triclinic,3D,0.7387,1.1227,-273.1405667,377.6262267,875.1726928,461.5292276,8025.31003,3114.521007,0.456702622,0.273683268,23.26964967,23.26964967,na,na
JVASP-9282,Mg(SbO2)4,1,P1,triclinic,2D,1.7139,2.7213,-197.0577833,333.2955067,1286.762634,797.0590835,24951.0505,7343.924567,0.514143231,0.440501874,2.553042478,2.553042478,na,na
JVASP-9284,Zn(BiO2)4,1,P1,triclinic,3D,0.0124,na,-242.4262633,385.3628867,907.8563482,655.0003865,14521.45797,4450.533767,0.466285004,0.385257409,1.958133455,1.958133455,na,na
JVASP-9285,Zn(SbO2)4,1,P1,triclinic,2D,1.592,2.4294,-234.0766333,397.9330133,1342.637574,402.6223032,22051.9671,2300.580423,0.570406363,0.23786999,30.73630937,30.73630937,na,na
JVASP-9289,ZnFeO2,2,P-1,triclinic,3D,0.0239,na,-128.0029477,-63.64937367,177.2458746,76.52007159,10462.67407,9132.2834,0.078740504,0.038935944,0.003254734,0.003254734,na,na
JVASP-9290,Ca(MnS2)2,141,I4_1/amd,tetragonal,3D,0.0023,na,-247.93544,250.5478567,2692.429144,970.0312773,39885.39833,13271.97117,1.033185234,0.465280573,0.049158665,0.049158665,na,na
JVASP-9291,CaCuO2,2,P-1,triclinic,3D,0.0052,0.0388,16.0711453,15.43546263,32.47257793,17.67324431,629512.5647,632759.1873,0.004662117,0.003952824,7.45E-05,7.45E-05,na,na
JVASP-9292,BaMg(BiO2)4,162,P-31m,trigonal,3D,0.6816,na,-293.21276,127.81953,7019.566579,814.73293,72988.81967,55753.376,1.812020089,0.280568903,0.729067536,0.729067536,na,na
JVASP-9293,BaMg(SnO2)4,162,P-31m,trigonal,3D,0.035,na,-21.5384479,-13.6082491,272.1006478,165.7225011,346872.21,333637.0533,0.022049279,0.01368792,9.19E-06,9.19E-06,na,na
JVASP-9294,BaZn(BiO2)4,162,P-31m,trigonal,3D,0.611,na,-250.90916,132.6802467,4434.556027,825.200463,57152.83633,51610.05633,1.359430322,0.294018746,0.497099294,0.497099294,na,na
JVASP-9295,BaCa(CuO2)4,162,P-31m,trigonal,3D,0.0029,na,23.98976737,24.6033638,141.4572935,150.7494881,565543.15,568044.4867,0.027092381,0.028067474,1.32E-05,1.32E-05,na,na
JVASP-9296,BaZn(SnO2)4,162,P-31m,trigonal,3D,0.0594,na,-19.93211747,-9.8650747,222.1682802,130.81724,327583.8,317146.86,0.019322857,0.011568908,1.02E-05,1.02E-05,na,na
JVASP-9299,BaCa(SbO2)4,162,P-31m,trigonal,3D,0.0133,na,-211.6151833,142.3959367,1720.128068,878.0813019,38289.26233,45885.71367,0.681992921,0.328636796,0.015709053,0.015709053,na,na
JVASP-9303,BaCa(BiO2)4,162,P-31m,trigonal,3D,1.0401,na,-315.86419,157.0856833,6528.543578,887.6109467,76071.30553,38786.55033,1.660647778,0.36126454,2.403268856,2.403268856,na,na
JVASP-9305,YV(WO4)2,1,P1,triclinic,3D,0.0031,0.0051,-149.55817,-151.7583967,853.5733911,854.9735746,40221.195,39155.43433,0.364987202,0.368150157,7.80E-05,7.80E-05,na,na
JVASP-9308,Ba2YTi3O8,123,P4/mmm,tetragonal,3D,0.0021,na,-54.791904,-53.35704333,2043.719256,1946.717119,904672.31,881119.07,0.094422578,0.087540113,6.53E-06,6.53E-06,na,na
JVASP-9311,BaCa(SnO2)4,162,P-31m,trigonal,3D,0.0565,na,-17.1432272,-7.303442333,324.2126705,293.5892257,275536.4833,265813.23,0.029684604,0.028318856,1.20E-05,1.20E-05,na,na
JVASP-9314,Ba(SbO2)4,162,P-31m,trigonal,3D,0.053,na,-8.197584,-9.278792667,179.3779578,202.5438404,706522.1967,701055.44,0.010477627,0.01214975,4.14E-06,4.14E-06,na,na
JVASP-9316,Ba(BiO2)4,162,P-31m,trigonal,3D,0.0159,na,-4.809223833,-5.896409833,37.42293011,37.08152413,496756.2233,496350.7233,0.003210871,0.003395265,6.20E-06,6.20E-06,na,na
JVASP-9317,YFe(WO4)2,1,P1,triclinic,3D,0.0104,na,17.81369697,15.58409635,7.063475812,6.739263457,22455.3156,22533.17863,0.003372699,0.003189567,0.000213002,0.000213002,na,na
JVASP-9319,YMn(WO4)2,1,P1,triclinic,3D,0.0037,na,-185.0032533,-188.1035133,816.9167201,814.6154096,24324.138,23431.577,0.404565105,0.405896279,0.000214666,0.000214666,na,na
JVASP-9322,Ca(CoS2)4,166,R-3m,trigonal,3D,0.713,na,35.16539567,34.591007,696.2541193,677.1913623,548408.9767,553823.7133,0.051178736,0.049183898,5.37E-06,5.37E-06,na,na
JVASP-9328,Ba2YSn3O8,123,P4/mmm,tetragonal,3D,0.0263,na,-2.724329967,-3.57924288,45.71557877,46.08645011,1891313.767,1872459.767,0.000931792,0.00092788,1.52E-06,1.52E-06,na,na
JVASP-9329,Ba2YAg3O8,123,P4/mmm,tetragonal,3D,0.002,na,8.812691333,9.655348667,984.1726099,1045.573299,2415543.673,2391043.853,0.040221793,0.04416982,3.77E-06,3.77E-06,na,na
JVASP-9331,YRe(WO4)2,1,P1,triclinic,3D,0.0076,na,9.734854087,10.804725,62.06895603,67.49131475,112680.8997,113059.7177,0.010015381,0.010909219,3.51E-05,3.51E-05,na,na
JVASP-9335,Mg(FeS2)4,166,R-3m,trigonal,3D,0.0105,na,-43.75978033,-43.58238067,429.5035858,421.61061,225826.52,223586.5633,0.057048037,0.056023451,1.38E-05,1.38E-05,na,na
JVASP-9337,Ba2YSb3O8,123,P4/mmm,tetragonal,3D,0.0155,na,-13.58957199,-9.427826467,374.2179417,306.8174025,784271.5833,757521.1833,0.019212533,0.016398059,3.86E-06,3.86E-06,na,na
JVASP-9338,AlCr(WO4)2,1,P1,triclinic,3D,0.0096,0.0018,-105.2453567,-106.0751243,344.7529242,343.628336,36128.2209,35425.7869,0.122190196,0.122615057,0.000839645,0.000839645,na,na
JVASP-9339,Ba2YBi3O8,123,P4/mmm,tetragonal,3D,0.0009,na,-75.29297967,-92.89666733,2446.441965,1177.265341,187653.8933,153846.6557,0.515783542,0.422324796,2.17E-05,2.17E-05,na,na
JVASP-9343,V(WO4)2,1,P1,triclinic,2D,0.0019,0.0034,-12.58540333,-15.22322367,166.2512297,158.4524617,83990.49273,84441.38337,0.051468418,0.049313378,0.000216845,0.000216845,na,na
JVASP-9345,Ba2Ti3AlO8,123,P4/mmm,tetragonal,3D,0.0007,na,-12.16735667,-12.45888933,1339.632395,1351.774318,1149927.18,1138716.567,0.043073371,0.044040775,4.33E-06,4.33E-06,na,na
JVASP-9349,Cr(WO4)2,2,P-1,triclinic,2D,0.01,0.0004,12.73835555,8.7873662,782.5450093,769.5036856,86968.46433,87030.14533,0.238089804,0.229489865,6.67E-05,6.67E-05,na,na
JVASP-9350,Ba2AlAg3O8,123,P4/mmm,tetragonal,3D,0.0006,na,22.68308367,28.28431667,838.8319116,1104.473521,2121111.487,2100808.683,0.05073452,0.073589406,9.87E-06,9.87E-06,na,na
JVASP-9354,Ba2AlSn3O8,123,P4/mmm,tetragonal,3D,0.0006,na,-4.255355893,-4.342784,41.61470081,50.40456356,1191225.02,1180641.057,0.001140914,0.001403813,2.76E-06,2.76E-06,na,na
JVASP-9355,Ba2AlCu3O8,123,P4/mmm,tetragonal,3D,0.0171,na,7.085088,6.870122667,579.3089793,577.3551864,1958681.88,1956395.53,0.025655385,0.025424427,2.04E-06,2.04E-06,na,na
JVASP-9359,BaMgV4O8,162,P-31m,trigonal,3D,0.0084,na,-4.411511333,-0.611360033,47.20412884,34.79452712,225852.7033,225720.0633,0.004897201,0.003782078,1.59E-05,1.59E-05,na,na
JVASP-9360,BaMgCr4O8,162,P-31m,trigonal,3D,0.0042,na,15.44684797,15.7308747,263.3698465,255.42983,284932.9667,286364.0433,0.03385713,0.032381416,1.02E-05,1.02E-05,na,na
JVASP-9362,BaV4ZnO8,162,P-31m,trigonal,3D,0.0068,0.0295,-2.65319704,-0.995466233,7.571180795,5.570116673,285664.5,285648.62,0.000713813,0.000531459,1.08E-05,1.08E-05,na,na
JVASP-9363,BaZn(FeO2)4,162,P-31m,trigonal,3D,0.0012,na,73.19035133,73.20454133,1075.74788,1096.998649,202247.6,206545.12,0.154350204,0.156266418,1.70E-05,1.70E-05,na,na
JVASP-9364,BaMg(FeO2)4,162,P-31m,trigonal,3D,0.002,na,91.00766167,95.729218,663.864033,782.3043766,92063.05467,96034.64733,0.136855125,0.158961404,7.26E-05,7.26E-05,na,na
JVASP-9365,BaCaV4O8,162,P-31m,trigonal,3D,0.0053,na,-15.5820083,-12.3117943,84.52320529,54.19163911,190848.8433,189744.0233,0.009176067,0.005954231,1.67E-05,1.67E-05,na,na
JVASP-9366,BaCa(CoO2)4,162,P-31m,trigonal,3D,0.008,na,22.58640333,24.06782433,95.24069452,105.6897787,171203.9413,172275.4153,0.012688619,0.014236205,3.44E-05,3.44E-05,na,na
JVASP-9367,BaZnCr4O8,162,P-31m,trigonal,3D,0.016,na,24.05764867,23.9624315,437.1834993,424.1143497,330984.4333,334040.3833,0.046484216,0.044219851,8.83E-06,8.83E-06,na,na
JVASP-9368,BaZn(NiO2)4,162,P-31m,trigonal,3D,0.0149,na,-61.93864033,-61.17216933,892.7212593,852.5996459,372007.2567,369186.3767,0.130736466,0.126864791,1.67E-05,1.67E-05,na,na
JVASP-9369,BaCa(NiO2)4,162,P-31m,trigonal,3D,0.0014,na,-74.30909233,-73.81036833,1480.126162,1407.858676,327964.384,323114.448,0.158639698,0.155611251,1.62E-05,1.62E-05,na,na
JVASP-9372,Pr2MgNi2,127,P4/mbm,tetragonal,3D,0.0019,na,-4.424318033,-4.581354767,69.85351096,73.67255691,1899753,1895816.633,0.001175893,0.001248408,1.56E-06,1.56E-06,-4.0842964,-4.266525367
JVASP-9373,Na4GeO4,2,P-1,triclinic,3D,3.02,5.9719,-105.1042617,483.1816767,732.2475642,129.4531064,67906.11967,553.3840167,0.234413147,0.077433376,0.437946519,0.437946519,-105.2860467,489.89688
JVASP-9374,ZnGeN2,33,Pna2_1,orthorhombic,3D,1.8656,2.9133,-64.25328533,319.2983,417.8058538,1470.860562,101537.039,14636.36767,0.104471908,0.76245054,0.218275717,0.218275717,-57.10439933,329.2885567
JVASP-9375,P2Pd3S8,164,P-3m1,trigonal,2D,1.5366,1.5731,-286.1838867,353.9120867,1475.382364,953.5538988,17768.661,7528.703833,0.754281375,0.54302186,1.236693545,1.236693545,-257.4716333,388.2022033
JVASP-9376,TbRb2F6,15,C2/c,monoclinic,2D,7.4158,na,38.41327967,37.63371033,24.89870156,24.61392564,26305.54607,26478.1705,0.011787201,0.011550613,0.000195661,0.000195661,69.905274,70.51437867
JVASP-9377,Tl4SnTe3,140,I4/mcm,tetragonal,3D,0.3304,na,-153.41242,219.3902567,2107.575158,2936.645164,88856.01633,56218.343,0.471685125,0.951939318,0.009975032,0.009975032,-141.1924337,190.1161767
JVASP-9378,Er2CdS4,227,Fd-3m,cubic,3D,1.1282,na,-72.72281733,309.34519,452.6255418,2290.099846,85585.00233,23931.37667,0.127296297,1.106993046,0.251982548,0.251982548,-74.107775,308.11187
JVASP-9379,Na2CO3,12,C2/m,monoclinic,3D,4.3581,7.0825,-129.43417,368.5556867,764.8625434,921.6589538,45503.17633,6263.36682,0.29358009,0.511925737,0.553498293,0.553498293,-144.8830833,372.8245233
JVASP-9380,KAgO,139,I4/mmm,tetragonal,3D,1.6278,2.5507,-226.1686767,318.91139,1719.754648,549.2086014,34639.26267,4788.711867,0.685930148,0.312865461,1.780473036,1.780473036,-170.7568033,318.6935567
JVASP-9381,Ga3PO7,160,R3m,trigonal,3D,3.426,5.5622,-97.407739,445.92192,647.8266984,1009.989202,68244.58967,5113.207333,0.206747535,0.585759231,0.365078151,0.365078151,-90.802561,453.44128
JVASP-9382,K3Zn2F7,139,I4/mmm,tetragonal,3D,4.4812,6.9803,-127.6142167,310.0572967,798.4274913,1469.293673,48114.86867,41693.0496,0.299915667,0.476286548,0.524945923,0.524945923,-126.48666,423.46249
JVASP-9383,Na2SO4,63,Cmcm,orthorhombic,3D,5.4667,8.5318,-139.7143367,349.38649,941.2002517,696.8575898,48151.71867,5571.318833,0.356988404,0.398953613,0.637331033,0.637331033,-128.9620833,364.65042
JVASP-9384,HoNbO4,15,C2/c,monoclinic,3D,3.4904,4.1548,-402.9441733,365.2232067,1230.360409,915.3558528,7340.624267,7439.4377,0.695878325,0.509228247,3.501146692,3.501146692,na,na
JVASP-9385,Tb3(SiCu)4,71,Immm,orthorhombic,3D,0.0033,na,-2.976013433,-4.0446714,448.7190057,429.760606,1287991.49,1290137.503,0.018071889,0.017306098,3.90E-06,3.90E-06,na,na
JVASP-9386,Zn(SbO3)2,136,P4_2/mnm,tetragonal,3D,0.7532,1.5656,-60.64562633,360.9597433,377.0546886,1191.214313,102885.7127,8368.723633,0.093782179,0.661269039,0.198125599,0.198125599,-62.83302233,326.3777767
JVASP-9388,NdTaO4,13,P2/c,monoclinic,3D,4.0085,5.2582,-304.6515067,340.98916,1290.88228,917.9965749,13706.92667,8180.7804,0.678359802,0.500249177,1.573262475,1.573262475,-308.19093,357.0466
JVASP-9389,CaCO3,59,Pmmn,orthorhombic,3D,4.3802,6.1464,-440.5354633,300.17791,1668.677956,1738.231862,8569.3204,17271.69543,0.931710077,0.813402227,2.827546771,2.827546771,-443.8547367,306.7885167
JVASP-9390,HgSO4,31,Pmn2_1,orthorhombic,3D,1.4907,3.4173,-109.8842733,375.6411433,743.48683,2202.193773,61077.74333,15621.60267,0.248018371,1.176917761,0.423350374,0.423350374,-99.962825,396.7049067
JVASP-9393,TbAsO4,141,I4_1/amd,tetragonal,3D,3.8523,na,-119.14202,437.9481467,736.2655814,1580.534469,52398.24233,8274.1509,0.265887627,0.888603951,0.48515203,0.48515203,-116.9154533,447.8563567
JVASP-9397,BaCeO3,74,Imma,orthorhombic,3D,2.4396,na,-607.2691867,426.03822,45.46944963,1647.923306,124.0526667,9057.8305,0.027231411,0.910174113,193.6984284,193.6984284,-657.6900067,430.3175833
JVASP-9398,Mg(RhO2)2,227,Fd-3m,cubic,3D,1.3232,1.4215,-312.27733,493.76603,3255.534975,481.025346,33384.23667,1972.993,1.432609591,0.285022106,0.735080471,0.735080471,-292.81165,485.70256
JVASP-9399,Nb2SnO6,15,C2/c,monoclinic,3D,1.8442,2.0911,-376.4622167,275.9110833,857.9432099,1417.318564,6075.374967,20050.6485,0.493867823,0.670573974,3.88804918,3.88804918,-375.12624,259.3337167