JID,Composition,Spg.numb.,Spg.symb.,Cryst.,Dimensionality,OPT SCF gap, MBJ gap,n-Seebeck,p-Seebeck,n-powerfact,p-powerfact,n-cond,p-cond,n-ZT,p-ZT,Avg.elec.mass,Avg.hole mass,n-mp-Seeb,p-mp-Seeb
JVASP-50,MoS2,160,R3m,trigonal,2D,1.4368,na,-351.3327433,243.72228,2951.705942,1265.075657,33899.70777,21460.684,1.213284605,0.588766335,28.10453127,28.10453127,-357.24704,195.1138767
JVASP-51,MoS2,160,R3m,trigonal,2D,0.9551,1.2929,-348.8779033,170.94331,4002.045422,990.6335871,33240.36967,33924.73533,1.831982855,0.421564443,0.788391487,0.788391487,-357.24704,195.1138767
JVASP-4346,P4S3,62,Pnma,orthorhombic,3D,2.3051,2.8966,-266.5580433,399.12802,1148.843921,369.4210636,12509.87927,2357.430967,0.556945061,0.217610666,2.122385188,2.122385188,-363.07375,423.23917
JVASP-4355,SmFe5,191,P6/mmm,hexagonal,2D,0.0005,0.0009,3.994510933,3.5511023,215.8584123,211.3364754,2778580.5,2781013.633,0.003506923,0.003428433,9.77E-07,9.77E-07,na,na
JVASP-4873,CoAs,194,P6_3/mmc,hexagonal,2D,0.003,na,-0.270463867,-0.253110133,81.64319137,83.07328844,4945204.4,4945106.933,0.000704246,0.000721645,5.89E-07,5.89E-07,-1.06086482,-1.101069959
JVASP-4358,GaSe,187,P-6m2,hexagonal,2D,0.5013,2.071,-102.569086,145.62198,1357.294286,1513.325566,114013.14,94421.328,0.241312266,0.365009725,0.115059429,0.115059429,-72.187234,252.8944567
JVASP-4361,As2O3,14,P2_1/c,monoclinic,2D,3.4064,5.2894,-346.3593067,267.0242067,1355.223813,905.1406037,11416.35873,12058.54567,0.70989738,0.475918445,2.691986887,2.691986887,-347.16987,285.03461
JVASP-4364,As2O3,14,P2_1/c,monoclinic,2D,3.8181,na,-279.04449,408.29212,1827.324724,646.8657778,24429.08047,3890.322733,0.869769239,0.377696047,1.468449906,1.468449906,-284.60747,415.6686133
JVASP-137,SiS2,72,Ibam,orthorhombic,1D,2.7267,3.5611,-211.21563,309.88055,1242.590197,1426.54703,29782.28233,13419.81393,0.550443462,0.734440462,1.359853953,1.359853953,-275.6458067,336.5217533
JVASP-58,MoSe2,194,P6_3/mmc,hexagonal,2D,0.7389,na,-234.3168667,187.04791,3511.758337,1023.515175,64625.098,28238.499,1.199319032,0.430707473,0.443491213,0.443491213,-359.7645367,334.16773
JVASP-56,MoSe2,194,P6_3/mmc,hexagonal,2D,1.4899,na,-339.3767633,320.6089567,3552.366683,2180.282216,30857.66533,21691.21373,1.649105807,1.035848821,0.779714686,0.779714686,-359.7645367,334.16773
JVASP-57,MoSe2,194,P6_3/mmc,hexagonal,2D,0.9064,1.3226,-277.2487533,192.0241867,3595.206152,1064.466846,47822.39133,28327.46333,1.364388454,0.450395594,0.53262896,0.53262896,-359.7645367,334.16773
JVASP-4367,CrSb,194,P6_3/mmc,hexagonal,2D,0.0147,0.0087,1.212006867,0.715649767,69.77536769,65.62084144,2921509.367,2923575.367,0.001027924,0.000981616,9.55E-07,9.55E-07,-3.09622565,-3.3195553
JVASP-4370,PrSb,123,P4/mmm,tetragonal,3D,0.003,0.0127,10.439659,12.00222933,5117.559066,4926.559217,2188753.067,2270584.9,0.0553769,0.050537684,1.84E-06,1.84E-06,0.092219,0.816158333
JVASP-4879,Mg(AlS2)2,166,R-3m,trigonal,2D,2.206,3.1305,-279.9143833,358.1228267,4990.689074,1261.196064,55578.217,11696.20298,1.667378903,0.654428759,0.775841458,0.775841458,-229.3880333,344.72894
JVASP-362,ZrSe3,11,P2_1/m,monoclinic,2D,0.0221,0.7417,-184.6768833,192.7765933,5064.253708,1784.767542,71310.03493,40464.08433,0.699314751,0.554678771,0.033487849,0.033487849,-234.5685233,212.4927
JVASP-593,TaS2,164,P-3m1,trigonal,2D,0.0129,0.001,-9.565010567,-9.893776833,178.2118665,193.3400164,4267478.543,4253895.187,0.005384206,0.005591143,1.66E-06,1.66E-06,na,na
JVASP-4885,Rb2S5,19,P2_12_12_1,orthorhombic,2D,1.6794,2.6989,-246.9812233,365.8887367,635.867457,361.1846426,7895.961579,2710.004348,0.346278752,0.210697299,105.726106,105.726106,-322.0457267,397.7369233
JVASP-4891,K2S5,19,P2_12_12_1,orthorhombic,2D,1.6409,2.6302,-250.23736,329.42249,628.5303698,421.6712752,7990.168623,4042.165013,0.342955514,0.243979304,62.76384029,62.76384029,-317.1809767,395.9377767
JVASP-4894,TaTe4Ir,31,Pmn2_1,orthorhombic,2D,0.0718,0.0027,19.16972767,29.09252367,374.80166,163.194065,148855.4017,149548.506,0.058952007,0.043981334,4.72E-05,4.72E-05,23.72948767,34.40816533
JVASP-4373,UHg2,191,P6/mmm,hexagonal,2D,0.0003,0.0008,0.355006033,0.529482733,22.00781958,19.58035903,2263926.933,2264077.767,0.000326907,0.000302169,1.33E-06,1.33E-06,1.85655503,1.9673267
JVASP-4376,MnNi,123,P4/mmm,tetragonal,3D,0.0078,0.0054,8.599111833,8.672233533,201.97196,206.5117714,2472373.867,2476550.433,0.003334349,0.003403335,1.16E-06,1.16E-06,na,na
JVASP-577,NbS2,166,R-3m,trigonal,2D,0.0069,0.0002,-3.604094467,-4.1140196,36.29783054,48.79297717,3516322.143,3509116.84,0.000541308,0.000698258,2.96E-06,2.96E-06,na,na
JVASP-76,WSe2,194,P6_3/mmc,hexagonal,2D,0.8479,na,-366.09359,184.6551633,986.646748,1081.226527,7383.347633,27765.308,0.546883904,0.444891714,0.562268835,0.562268835,-325.53631,296.7104033
JVASP-74,WSe2,194,P6_3/mmc,hexagonal,2D,1.615,na,-326.19642,296.46019,2470.900856,2316.457204,23738.52633,30053.0197,1.175592648,1.019194561,0.622217347,0.622217347,-325.53631,296.7104033
JVASP-75,WSe2,194,P6_3/mmc,hexagonal,2D,1.0461,1.4356,-617.4520133,186.71852,271.6310188,1149.441435,713.8735933,32575.17767,0.161577525,0.453987083,39.58382176,39.58382176,-325.53631,296.7104033
JVASP-4216,SiAs,12,C2/m,monoclinic,2D,0.9805,1.6235,-240.96792,201.89709,3458.293068,1727.372981,58523.14733,40659.93453,1.114558002,0.667480626,0.407320346,0.407320346,-261.21704,238.5476967
JVASP-4918,K3VO4,121,I-42m,tetragonal,3D,3.6471,4.1136,-319.7715033,464.5198333,715.097272,597.3947191,7004.965333,3376.728633,0.404531114,0.351649777,2.974794793,2.974794793,na,na
JVASP-4921,TiFeO3,63,Cmcm,orthorhombic,3D,0.0048,0.0019,-0.7459606,-0.678630033,62.2380992,65.61018937,353396.01,353757.7233,0.006071855,0.006153671,1.37E-05,1.37E-05,2.172924633,2.408593397
JVASP-4924,CoO,166,R-3m,trigonal,3D,0.0021,0.0015,38.175545,38.17783133,3494.810495,3504.334197,2532741.6,2539794.767,0.057309493,0.057411691,1.25E-06,1.25E-06,na,na
JVASP-335,TiTe2,164,P-3m1,trigonal,2D,0.0012,0.0061,-7.841624433,-7.471015433,379.0467825,344.184452,1640766.06,1624422.663,0.00772156,0.007029172,2.00E-06,2.00E-06,0.982690667,0.529494667
JVASP-4930,Ni(AgO)2,166,R-3m,trigonal,3D,0.0025,0.0018,8.5789527,8.3814501,300.8286707,293.0248566,3016202.3,3024261.033,0.003706142,0.003597417,9.56E-07,9.56E-07,9.481483733,9.11485084
JVASP-81,GaSe,194,P6_3/mmc,hexagonal,2D,0.7249,2.1372,-111.2671767,146.0999333,1573.835586,1520.712507,128736.62,94117.26,0.329752252,0.364838116,0.115259251,0.115259251,-81.06235,251.1183267
JVASP-344,WO3,129,P4/nmm,tetragonal,3D,0.4724,1.5743,313.8772033,296.33905,3350.993177,3567.361072,61515.2302,74588.79127,1.162013949,1.157654453,0.015957594,0.015957594,-135.8199147,480.5646767
JVASP-597,TaTe2,12,C2/m,monoclinic,2D,0.0011,0.0096,-17.70371647,-19.19855207,286.9126419,329.0790037,363790.53,352166.87,0.028074607,0.031265848,9.80E-06,9.80E-06,na,na
JVASP-4945,USi,62,Pnma,orthorhombic,3D,0.0008,0.0004,-2.0903989,-1.5138974,92.05421034,86.42592511,623421.92,623246.28,0.004571581,0.004384119,5.38E-06,5.38E-06,16.24699153,16.12587607
JVASP-4948,InSb,25,Pmm2,orthorhombic,2D,0.0006,0.0004,0.002122767,0.094974433,296.0480658,295.1524778,15441609,15430738,0.000928998,0.000935012,1.96E-07,1.96E-07,-1.358908433,-0.922247633
JVASP-4954,Rh(OF3)2,2,P-1,triclinic,0D,0.0043,0.6851,-78.86181567,-80.185106,280.0814224,284.3638669,43223.62633,42416.71367,0.124034409,0.126234363,8.50E-05,8.50E-05,na,na
JVASP-4960,TlSbSe2,65,Cmmm,orthorhombic,1D,0.0001,na,0.308098767,0.437647567,285.4060783,257.2572817,4257135.707,4242135.723,0.004745139,0.004421752,1.93E-06,1.93E-06,-7.298564667,-6.669869667
JVASP-594,TaS2,194,P6_3/mmc,hexagonal,2D,0.0162,0.0302,10.37602567,9.999776667,482.1587496,531.8371662,1663091.667,1657081.963,0.033773372,0.035537807,6.96E-06,6.96E-06,7.393740333,6.917846667
JVASP-4966,YbCuS2,62,Pnma,orthorhombic,2D,0.0051,na,16.62106843,16.2096827,633.1043815,629.9066136,763483.9867,769316.5,0.019384693,0.018996928,4.94E-06,4.94E-06,13.7683637,13.2863342
JVASP-252,PbO,129,P4/nmm,tetragonal,2D,1.472,2.3864,-141.8564,356.0260767,1405.033809,1553.882064,70275.05267,12539.37087,0.452626069,0.832011538,0.385681183,0.385681183,-144.4333867,327.7598967
JVASP-4969,PuSb,123,P4/mmm,tetragonal,3D,0.0248,0.0026,-14.09581347,-13.99778713,178.6568507,171.6686798,993547.5133,992659.6933,0.010872818,0.010402567,4.42E-06,4.42E-06,na,na
JVASP-4975,BaTiO3,123,P4/mmm,tetragonal,2D,0.0011,na,28.8942852,29.05687193,2414.940171,2494.422404,3555121.767,3568113.233,0.074314323,0.076927862,1.65E-06,1.65E-06,na,na
JVASP-4990,Sc2InC,194,P6_3/mmc,hexagonal,3D,0.0037,na,-10.09362322,-7.437707533,599.5216053,602.3632257,2609660.62,2585598.85,0.006346466,0.006812629,9.54E-06,9.54E-06,-8.688387867,-6.639216
JVASP-4993,Ag2PbO2,15,C2/c,monoclinic,3D,1.4752,2.2509,-131.4286533,328.8662133,759.0058354,1881.910593,43717.924,18596.31967,0.29625584,0.920905597,0.534742937,0.534742937,-167.6446967,322.5982
JVASP-4999,RbMnAs,129,P4/nmm,tetragonal,3D,0.0122,0.0137,6.253204333,5.521931667,1108.251771,1128.622195,814554.58,825740.45,0.062732802,0.065410268,6.22E-06,6.22E-06,4.597703367,5.091577133
JVASP-37,InAs,216,F-43m,cubic,3D,0.6786,na,-38.57613133,223.69644,236.5246648,2716.031747,158942.1533,54277.10767,0.03984024,0.754256777,0.000329327,0.000329327,-41.848837,218.83344
JVASP-97,InAs,216,F-43m,cubic,3D,0.6457,0.3981,-42.478109,221.6819,279.5124818,2705.085832,154906.9333,55045.34267,0.047309022,0.740721862,0.000322957,0.000322957,-41.848837,218.83344
JVASP-5005,Np(CuGe)2,139,I4/mmm,tetragonal,3D,0.0019,na,6.738161443,6.988373497,52.36749204,54.18523462,496569.0733,496897.2533,0.003479852,0.003607886,6.22E-06,6.22E-06,na,na
JVASP-46,FeSe,129,P4/nmm,tetragonal,2D,0.0523,na,-10.0982458,-10.3961154,102.1560341,100.8874495,1823056.66,1824800.753,0.014692773,0.014998793,6.39E-06,6.39E-06,na,na
JVASP-44,FeSe,129,P4/nmm,tetragonal,2D,0.0147,na,-2.383927133,-2.811508467,123.3389137,121.0807685,1335433.486,1341070.648,0.004806819,0.004939108,3.92E-05,3.92E-05,na,na
JVASP-45,FeSe,129,P4/nmm,tetragonal,2D,0.0133,na,-11.57226733,-11.8219634,48.80182697,48.95804762,1478427.263,1478882.731,0.011895911,0.012156925,1.13E-05,1.13E-05,na,na
JVASP-266,InP,216,F-43m,cubic,3D,0.8864,1.3874,-29.471664,259.2058233,145.8805466,3201.346214,167953.1167,47647.831,0.025081024,1.186433772,0.054404907,0.054404907,-33.89569,253.29204
JVASP-5011,KMnP,129,P4/nmm,tetragonal,3D,0.0212,0.0123,9.154634933,10.14063633,193.2079627,207.5105096,849619.379,856595.9243,0.005860517,0.006243229,1.13E-05,1.13E-05,na,na
JVASP-365,ZrSe2,164,P-3m1,trigonal,2D,0.0961,0.5196,-259.7326733,247.18203,3441.258957,2578.62765,45850.56,46863.04333,1.170189314,0.967858323,0.035665646,0.035665646,-270.5479867,233.8205733
JVASP-356,ZrTe3,11,P2_1/m,monoclinic,2D,0.0023,na,-7.998487133,-9.9821586,4240.064138,4612.038343,2196600.063,2100170.91,0.04135547,0.047376646,7.92E-06,7.92E-06,-13.33196033,-16.39585633
JVASP-5053,InAg(PSe3)2,163,P-31c,trigonal,2D,0.2843,1.3764,-62.609427,367.8188133,399.7054253,1406.124237,88791.99467,10462.6437,0.099133375,0.785476803,0.160675464,0.160675464,-62.49196533,345.9292133
JVASP-281,SnO,129,P4/nmm,tetragonal,2D,0.5316,1.0596,-131.2955267,291.7206833,1354.846576,1595.21856,79226.257,19311.17333,0.411111553,0.774733084,0.333825553,0.333825553,-132.84111,276.45226
JVASP-5059,Dy3Mn3Ga2Si,189,P-62m,hexagonal,2D,0.0013,0.0002,-0.309700667,-0.8616129,45.44144931,50.46793417,1550252.12,1548186.46,0.000739082,0.00074415,3.14E-06,3.14E-06,-37.09323867,-36.62034967
JVASP-5065,CaMnSi,129,P4/nmm,tetragonal,3D,0.0181,0.0014,-9.348736607,-10.10283267,179.3716119,198.6998639,1342103.823,1339510.833,0.010794473,0.012041719,2.24E-06,2.24E-06,0.151641,-0.124548
JVASP-5071,Ba(InTe2)2,66,Cccm,orthorhombic,3D,0.9044,1.4651,-97.87472967,294.2915467,743.2479967,1895.952347,75747.753,22006.57333,0.211870703,0.942034136,0.290131775,0.290131775,-113.034124,287.7016567
JVASP-5074,RhF3,150,P321,trigonal,2D,0.0298,0.4232,-306.66137,337.4789333,110.7775916,601.5299194,1157.432867,5224.485967,0.061014303,0.33971123,0.590573647,0.590573647,-384.7620967,362.0389
JVASP-5080,FeSn,191,P6/mmm,hexagonal,3D,0.0005,na,-15.14207197,-15.39034617,496.6686373,509.275702,2574626.9,2565820.4,0.013678118,0.014049763,1.44E-06,1.44E-06,6.194235667,6.176820667
JVASP-5083,FeTe,129,P4/nmm,tetragonal,2D,0.0053,0.0084,12.18005283,12.2711989,238.5469394,245.0936884,1584937.367,1592671.7,0.00582294,0.005963009,1.81E-06,1.81E-06,12.20444967,12.1554292
JVASP-254,PbS,225,Fm-3m,cubic,3D,0.2204,1.2978,-133.82214,143.58687,2003.866369,2274.641434,111895.55,110327.4267,0.488331679,0.522185653,0.190651388,0.190651388,-135.9518,142.97743
JVASP-4385,NdGe2,141,I4_1/amd,tetragonal,2D,0.0064,0.0027,-4.379402767,-1.204654059,65.72550607,30.95600757,2864384.3,2858720.8,0.000709311,0.000286736,1.16E-06,1.16E-06,-11.0499348,-7.653581067
JVASP-5086,KO2,15,C2/c,monoclinic,3D,0.0103,0.0079,-14.29193043,-13.83150717,353.6447923,324.3887241,302266.5367,299275.4533,0.029137977,0.02691293,1.37E-05,1.37E-05,-30.27349,-5.941256667
JVASP-5089,UTe2,129,P4/nmm,tetragonal,3D,0.0028,0.0001,-20.646076,-20.43474067,121.7644629,121.3757919,608214.0703,606127.363,0.014001414,0.013358486,1.37E-05,1.37E-05,-5.016803933,-5.32933
JVASP-5095,TbFeSi,129,P4/nmm,tetragonal,2D,0.002,0.0014,-4.7626713,-4.98654412,158.8374879,163.7638452,1670457.967,1668343.267,0.003448375,0.00357066,1.69E-06,1.69E-06,-6.07361303,-6.447922767
JVASP-5098,PtPb,194,P6_3/mmc,hexagonal,3D,0.0082,0.0113,-11.46384667,-11.9062518,973.4235026,1037.632529,7162673.733,7107975.5,0.006663418,0.00718047,4.12E-07,4.12E-07,-11.63121507,-12.11830207
JVASP-5101,Zn(InS2)2,164,P-3m1,trigonal,2D,0.4646,0.7486,-6.29502,162.0878343,191.9827657,370.1391851,63878.02699,7255.26324,0.052550564,0.146015106,0.176739119,0.176739119,na,na
JVASP-5107,PuIn,123,P4/mmm,tetragonal,3D,0.002,na,-19.67806233,-19.49990833,662.5146224,645.9064669,1634100.2,1630002.7,0.013985196,0.013715787,1.87E-06,1.87E-06,na,na
JVASP-317,TiS2,164,P-3m1,trigonal,2D,0.0149,0.0346,4.118627667,59.68234933,195.0280276,678.235276,192384.3767,205683.0833,0.01989334,0.076467099,3.31E-05,3.31E-05,-65.7264684,-43.23416333
JVASP-296,SnSe,63,Cmcm,orthorhombic,2D,0.0178,0.9246,-198.49543,164.9687733,3374.340962,3659.562206,128379.7527,131407.1057,0.715149448,0.678298402,0.336558346,0.336558346,-181.30987,156.79774
JVASP-198,CrSe,194,P6_3/mmc,hexagonal,3D,0.0056,na,-1.935950103,-1.472077067,4.093011276,2.389136468,1245811.04,1244301.53,0.000171336,8.09E-05,2.81E-06,2.81E-06,8.560486,10.19447143
JVASP-326,TiSe2,164,P-3m1,trigonal,2D,0.0036,na,0.549905667,2.354923667,805.4084908,657.8888046,987364.9867,974393.2067,0.040543013,0.035592852,3.93E-06,3.93E-06,-50.25369867,-51.669651
JVASP-21,PbSe,225,Fm-3m,cubic,3D,0.4391,0.9619,-113.5233,154.39822,1679.135926,2762.74934,130291.4267,115892.92,0.367328085,0.532803856,0.144858997,0.144858997,-123.02748,165.43587
JVASP-70,NbSe2,194,P6_3/mmc,hexagonal,2D,0.0486,na,25.62901303,24.64201413,2344.086255,2351.564806,2002423.533,2010822.9,0.095514395,0.093842426,1.64E-06,1.64E-06,3.5423698,3.261781133
JVASP-68,NbSe2,194,P6_3/mmc,hexagonal,2D,0.0054,na,1.111258967,1.096734867,38.31017244,56.23104845,1257889.027,1256324.143,0.002026318,0.002868339,9.21E-06,9.21E-06,3.5423698,3.261781133
JVASP-69,NbSe2,194,P6_3/mmc,hexagonal,2D,0.0251,0.0282,16.9878206,16.06071917,1507.37299,1539.583707,1622115.32,1625780.783,0.059653191,0.059836281,1.86E-06,1.86E-06,3.5423698,3.261781133
JVASP-4388,CS2,64,Cmce,orthorhombic,0D,2.8814,3.2103,-359.41804,386.6689533,1450.468181,1682.953893,11153.0192,12162.7338,0.745196487,0.902929005,3.065076203,3.065076203,-483.0872467,437.77196
JVASP-4391,TeO2,136,P4_2/mnm,tetragonal,3D,0.1812,0.5987,-116.51275,113.276906,1107.220741,532.6406846,78322.70333,46134.441,0.234761513,0.10494654,0.000278642,0.000278642,-84.66306533,52.87058233
JVASP-5122,SmCuSeF,129,P4/nmm,tetragonal,3D,0.0069,na,13.11432967,14.19705033,956.5609336,1065.39243,1585562.445,1520047.366,0.020551154,0.024505507,0.000395954,0.000395954,-6.41712984,-6.698328273
JVASP-5125,Ba(MnGe)2,139,I4/mmm,tetragonal,2D,0.0043,na,-12.01438,-11.6339134,304.2746486,308.6865403,1173913.08,1165688.123,0.00864389,0.008814667,2.70E-06,2.70E-06,-9.833374667,-10.21944913
JVASP-73,WS2,194,P6_3/mmc,hexagonal,2D,0.6891,na,-134.057834,127.7796833,0.549176534,751.7984013,17.68349367,46406.086,0.000325718,0.283823665,63.77906114,63.77906114,-335.06852,227.2693033
JVASP-71,WS2,194,P6_3/mmc,hexagonal,2D,1.5662,na,-797.4541767,247.6096733,104.1729238,1651.816523,170.9805333,27070.75167,0.062360891,0.710822269,3397.351915,3397.351915,-335.06852,227.2693033
JVASP-72,WS2,194,P6_3/mmc,hexagonal,2D,0.7182,1.514,-27.9462,137.4646367,1.406426776,791.9452658,14.13479877,42304.83933,0.000841227,0.309005109,246.0596734,246.0596734,-335.06852,227.2693033
JVASP-5137,Tb3Mn3Ga2Si,189,P-62m,hexagonal,2D,0.004,0.0002,-0.2613271,-0.714980733,17.06514613,20.51933786,1493653.01,1492367.793,0.000283998,0.000306936,3.16E-06,3.16E-06,-36.82460433,-36.33304233
JVASP-5146,InAg(PS3)2,163,P-31c,trigonal,2D,0.9793,1.9441,-80.888549,355.32607,468.6986207,1126.719794,72169.24567,9192.989167,0.139889282,0.625341247,0.256237327,0.256237327,-94.21542133,356.7736367
JVASP-6,Te2W,31,Pmn2_1,orthorhombic,2D,0.0011,na,-5.924148867,1.308494633,197.7905042,124.1286134,317625.1267,313200.7033,0.010750433,0.00775027,1.14E-05,1.14E-05,-31.88200393,-25.8855398
JVASP-77,Te2W,31,Pmn2_1,orthorhombic,2D,0.001,na,-34.03566337,-29.43892755,531.2579387,282.4688043,261223.1977,241772.312,0.03789471,0.022995129,5.09E-05,5.09E-05,-31.88200393,-25.8855398
JVASP-78,Te2W,31,Pmn2_1,orthorhombic,2D,0.0011,0.0304,-16.4653213,7.178717667,225.3622192,61.77487804,204809.5177,196272.8267,0.015044459,0.006441403,2.98E-05,2.98E-05,-31.88200393,-25.8855398
JVASP-5155,U2Ni2Sn,127,P4/mbm,tetragonal,3D,0.0027,0.0035,18.86337413,18.51372947,88.02187716,85.12086135,199023.34,199635.8033,0.015013574,0.014526134,1.35E-05,1.35E-05,2.767562667,2.710572333
JVASP-5158,MoCl3,12,C2/m,monoclinic,2D,0.0171,na,-203.120405,213.67188,285.5821714,567.9208963,3360.684433,6513.869233,0.16195293,0.315771202,0.153266018,0.153266018,-80.050163,-36.53859167
JVASP-4180,HgCl2,62,Pnma,orthorhombic,0D,2.6588,4.4379,-126.1335767,352.39634,821.0411725,701.413416,55431.29067,5858.933767,0.286459395,0.395385685,0.607587292,0.607587292,-151.21386,377.6010567
JVASP-602,Te2Ir,164,P-3m1,trigonal,2D,0.0088,0.0066,11.927195,11.55906933,675.4453703,637.5956296,4547990.6,4578736.167,0.005984108,0.005625841,6.71E-07,6.71E-07,na,na
JVASP-5161,NiBi,194,P6_3/mmc,hexagonal,3D,0.0042,0.0074,-11.3328992,-10.81957663,888.7974173,843.7200193,6066483.867,6032768.1,0.005493173,0.005220335,4.86E-07,4.86E-07,-11.87124683,-11.36868237
JVASP-5164,CuI,129,P4/nmm,tetragonal,2D,1.5712,3.095,-69.40923167,284.8480067,439.0295515,1988.681227,91096.17633,24014.41867,0.117746879,0.931104334,0.237124283,0.237124283,-69.98383567,295.13569
JVASP-5167,BiRh,194,P6_3/mmc,hexagonal,3D,0.007,0.005,-10.84422713,-9.917370667,701.69425,632.5006908,3284038.467,3274572.567,0.007779993,0.006985954,9.53E-07,9.53E-07,-7.7233132,-6.531274967
JVASP-5170,MnBi,194,P6_3/mmc,hexagonal,2D,0.0031,0.0087,24.058599,24.50531333,352.7481794,361.3183717,564487.6033,568850.77,0.020117346,0.02069919,5.82E-06,5.82E-06,-29.02405953,-28.44407713
JVASP-161,PbI2,166,R-3m,trigonal,2D,2.2722,3.1383,-139.5999333,353.9978367,1093.771883,2909.09766,54792.42,23253.70267,0.338682602,1.354893237,0.711662574,0.711662574,-125.5869323,417.8786167
JVASP-5173,PbI2,164,P-3m1,trigonal,2D,2.2419,3.1329,-123.1793667,342.1138967,936.3947852,2556.49478,56312.37567,21810.222,0.290231212,1.196241686,0.572364859,0.572364859,-126.871464,412.3938633
JVASP-601,Te2Rh,164,P-3m1,trigonal,2D,0.0023,0.0026,9.4939429,9.2228785,496.6813872,471.1889127,5047660.633,5075943.767,0.003817951,0.003602414,5.98E-07,5.98E-07,na,na
JVASP-5176,CuBr,129,P4/nmm,tetragonal,2D,1.0125,1.8765,-80.66113833,377.6878233,533.525115,1618.598927,82060.17067,11321.4238,0.15373038,0.862163586,0.288050774,0.288050774,-80.48823233,391.4164267