JID,Composition,Spg.numb.,Spg.symb.,Cryst.,Dimensionality,OPT SCF gap, MBJ gap,n-Seebeck,p-Seebeck,n-powerfact,p-powerfact,n-cond,p-cond,n-ZT,p-ZT,Avg.elec.mass,Avg.hole mass,n-mp-Seeb,p-mp-Seeb
JVASP-9400,LaGaO3,161,R3c,trigonal,3D,3.5852,4.4654,-144.4539467,370.88056,1079.748984,2221.399398,52050.29833,16066.23233,0.403691686,1.15147819,0.725349818,0.725349818,-123.0015333,426.1401333
JVASP-9401,NaGaO2,33,Pna2_1,orthorhombic,3D,3.0014,na,-104.2153013,452.2846233,724.1378935,313.1494645,67464.56233,1547.7525,0.234933455,0.186408388,0.410115947,0.410115947,-95.32291867,499.1334067
JVASP-9402,Sr3Ti2O7,139,I4/mmm,tetragonal,3D,1.8854,na,-172.8556233,399.0319533,1766.690467,1211.002217,42172.40637,7272.877067,0.652152371,0.668718168,3.807448861,3.807448861,-218.7472267,395.9805033
JVASP-9403,K2SbF5,63,Cmcm,orthorhombic,3D,4.9609,6.8375,-287.7611033,412.96411,784.2129978,203.1693501,9821.748233,1196.0782,0.429580017,0.120946568,3.57706046,3.57706046,-291.1827,410.83982
JVASP-9404,SrSeO3,11,P2_1/m,monoclinic,3D,3.7401,5.0513,-333.2644033,353.04754,1522.778145,1237.349891,13841.53963,9423.638267,0.784661575,0.655775127,2.723347353,2.723347353,-342.3676467,350.1501267
JVASP-9405,TlCr5Se8,12,C2/m,monoclinic,3D,0.0004,na,-34.53813267,-14.924648,321.7058181,195.5212046,79222.734,76071.91867,0.07655631,0.04916019,4.93E-05,4.93E-05,na,na
JVASP-9406,RbAuF4,140,I4/mcm,tetragonal,3D,2.4963,2.5829,-388.29385,406.1076367,209.2294699,341.5304715,1395.227553,2156.563567,0.125084937,0.20333342,12.66760192,12.66760192,-392.0519667,428.38846
JVASP-9407,LiAlO2,92,P4_12_12,tetragonal,3D,4.9632,2.9142,-147.8666967,345.9546667,1043.566207,809.1108901,47924.999,6646.4969,0.398422424,0.455867113,0.669950853,0.669950853,-121.4338767,384.0283567
JVASP-9408,SbPO4,11,P2_1/m,monoclinic,2D,4.0653,na,-328.4348133,273.50214,1344.214494,1889.930703,12866.654,23831.95143,0.684211486,0.83294419,2.600623727,2.600623727,-337.7838067,287.3724967
JVASP-9409,CaTiO3,140,I4/mcm,tetragonal,3D,2.3086,2.8175,-333.5438867,434.9998267,3480.392134,2324.783105,31422.68767,12415.11533,1.56689229,1.253802242,0.878479654,0.878479654,-338.2022333,435.6771133
JVASP-9410,Cd(GaO2)2,227,Fd-3m,cubic,3D,1.8136,3.5113,-66.129032,466.25981,447.3438041,1623.921754,102295.6333,7469.802767,0.112653279,0.922971901,0.223951312,0.223951312,-60.556002,467.58402
JVASP-9411,ErTaO4,13,P2/c,monoclinic,3D,4.0592,5.3319,-344.1034167,359.5991467,1102.489566,1036.80483,9174.4115,8599.875067,0.606640479,0.564032209,2.250541828,2.250541828,-344.86778,375.9688567
JVASP-9412,PrAlO3,167,R-3c,trigonal,3D,4.1423,5.1077,-219.2785933,403.4473633,1706.020381,1886.633396,35483.02833,11533.53033,0.732317011,1.021166473,0.861326676,0.861326676,-236.6540533,423.8853967
JVASP-9413,S3(NO)2,15,C2/c,monoclinic,3D,1.4981,na,-396.54377,256.8416033,817.4619797,899.389443,4719.049167,14055.65633,0.466866055,0.477707498,6.065233072,6.065233072,-386.69463,288.4263367
JVASP-9414,ZrSO,198,P2_13,cubic,3D,2.4479,2.9349,-353.46111,298.40532,1576.531075,1703.958526,12618.835,19135.768,0.832581158,0.857524313,2.866886912,2.866886912,-355.64158,301.52258
JVASP-9415,Na3AgO2,72,Ibam,orthorhombic,3D,1.3505,2.5369,-179.94604,216.7181767,1174.483967,1608.675872,36247.073,25160.12967,0.499173258,0.596847076,0.938198258,0.938198258,-148.2520433,223.2262767
JVASP-9416,Tb(Al2Fe)4,139,I4/mmm,tetragonal,3D,0.0012,0.0017,-7.439215397,-6.857675427,260.1571745,250.6590955,1112605.227,1111478.813,0.011337548,0.010886899,2.87E-06,2.87E-06,na,na
JVASP-9417,YAl4Ni,63,Cmcm,orthorhombic,3D,0.0019,na,20.1523,19.17370633,1127.531673,1042.136117,3010752.767,3052193.8,0.017462157,0.01589018,1.09E-06,1.09E-06,na,na
JVASP-9418,MnSiN2,33,Pna2_1,orthorhombic,3D,0.0483,na,-260.5801567,333.0150067,805.8179419,795.3862934,12267.9789,7552.807733,0.433133247,0.443029022,0.889848945,0.889848945,-281.0156467,335.03528
JVASP-9419,Na2PdF4,14,P2_1/c,monoclinic,3D,1.3232,1.1523,-481.85631,331.6232133,239.6593021,1666.805864,1101.030933,11638.69782,0.143200245,0.823739535,155.5981198,155.5981198,na,na
JVASP-9421,YSF,194,P6_3/mmc,hexagonal,3D,2.5751,na,-261.2627433,242.17432,2511.271956,1590.865893,35250.43533,24356.4065,1.045341056,0.730417088,0.631062133,0.631062133,-259.8387333,254.98321
JVASP-9422,Er(Al2Fe)4,139,I4/mmm,tetragonal,3D,0.0016,0.0034,-0.3978489,-0.587325633,95.77340126,93.4627703,1349782.633,1350409.9,0.003298443,0.003246397,2.16E-06,2.16E-06,na,na
JVASP-9423,LiGaS2,33,Pna2_1,orthorhombic,3D,2.9751,na,-146.3715267,279.3307367,930.7281462,1314.183416,38102.802,17215.58733,0.325072286,0.668755715,0.391600512,0.391600512,-121.86297,300.9531733
JVASP-9424,HfCu2Te3,12,C2/m,monoclinic,3D,0.0075,na,-205.1035067,159.0440767,1870.593165,1109.862379,43020.3781,57309.348,0.541287787,0.343800127,0.006594401,0.006594401,-135.8448433,118.5936167
JVASP-9425,Mg(SbO3)2,136,P4_2/mnm,tetragonal,3D,1.2331,2.1842,-74.03961367,241.88435,450.4831308,810.2060615,82578.375,12783.56903,0.128731824,0.419096928,0.248872626,0.248872626,-78.65810133,248.2702967
JVASP-9426,LiTaO3,161,R3c,trigonal,3D,3.7668,2.7047,-404.7696433,451.6442267,3447.350748,1248.342453,21265.199,6100.043033,1.736837336,0.716154572,1.460841987,1.460841987,-395.3465567,465.93915
JVASP-9427,MgSiN2,33,Pna2_1,orthorhombic,3D,4.4596,5.4079,-89.14220033,321.4700133,545.9510139,1466.807603,68696.73133,14162.87377,0.173898194,0.765159587,0.326890606,0.326890606,-96.75620033,346.0940933
JVASP-9430,Sc(Al2Fe)4,139,I4/mmm,tetragonal,3D,0.0008,0.0007,6.91575941,6.623616057,142.1405606,137.0735,1394760,1398626.933,0.00378281,0.003649186,2.03E-06,2.03E-06,na,na
JVASP-9432,CaGe2O5,15,C2/c,monoclinic,3D,2.6177,4.3508,-106.05433,377.57407,718.4398765,1000.185258,63827.96467,6963.040833,0.238149011,0.56368707,0.424478809,0.424478809,-94.02401967,382.9990067
JVASP-9433,SrHfO3,140,I4/mcm,tetragonal,3D,4.1711,5.717,-240.9089067,414.3337733,2447.611166,1797.119563,42363.92,10491.86677,0.938655433,0.976436724,0.655691739,0.655691739,-235.67315,435.9660933
JVASP-9434,NdCuSe2,14,P2_1/c,monoclinic,3D,0.8116,na,-122.5264497,202.29727,788.3327392,1142.154278,55139.704,28533.716,0.262288811,0.510605996,0.453207024,0.453207024,-117.2904263,220.18054
JVASP-9435,AlTlF4,15,C2/c,monoclinic,3D,4.671,na,-283.95158,419.1424733,2399.381727,1233.622845,28511.94567,7027.56,0.992986994,0.691353186,2.326871024,2.326871024,-242.5672033,365.4167267
JVASP-9436,SmTaO4,15,C2/c,monoclinic,3D,4.0472,5.313,-318.5087567,348.9009267,1419.650229,845.6363411,13896.15567,7434.192767,0.734961985,0.468516818,1.275398974,1.275398974,-321.6245633,368.8255033
JVASP-9437,MgGeO3,148,R-3,trigonal,3D,3.9079,5.6609,-102.1749467,474.9346133,673.1063139,601.4174942,64428.277,2638.2345,0.221162823,0.354087617,0.390847484,0.390847484,-90.806625,479.8601367
JVASP-9438,MgTiO3,148,R-3,trigonal,3D,3.5152,4.0159,-488.89482,472.08594,882.5634234,857.9229574,3686.967867,3843.670233,0.517191202,0.505634375,7.476957178,7.476957178,-475.03004,479.2830567
JVASP-9439,BaSiN2,64,Cmce,orthorhombic,3D,2.9105,na,-307.8306333,275.25993,2005.41239,1474.057256,21300.46967,19612.1986,1.000133077,0.664701293,1.088134602,1.088134602,-329.49956,269.3538067
JVASP-9440,Al2CdSe4,227,Fd-3m,cubic,3D,1.4123,na,-62.89428567,321.86616,470.1781201,4270.211558,118861.18,41219.12367,0.089054362,1.958440371,0.094870803,0.094870803,-52.569181,334.59875
JVASP-9441,NiAsS,198,P2_13,cubic,3D,0.0292,na,13.620521,13.793555,313.5889037,323.878803,1690336.8,1702276.5,0.007096694,0.007361799,1.64E-06,1.64E-06,na,na
JVASP-9443,Ba2CuF6,64,Cmce,orthorhombic,3D,0.828,5.6657,-340.4865067,384.3839167,518.941161,590.0039364,4141.05439,4290.42752,0.305845913,0.341159036,533.137463,533.137463,-345.9961733,394.4385533
JVASP-9444,BaZnF4,36,Cmc2_1,orthorhombic,3D,4.7855,na,-123.4920333,425.26524,774.2691401,1026.833955,50636.84433,5126.610933,0.282621799,0.593076217,0.503770637,0.503770637,-131.6623533,458.3915
JVASP-9445,NdNbO4,15,C2/c,monoclinic,3D,3.6135,4.2334,-355.38743,374.8106033,1462.090679,799.3269127,11263.94997,5830.238467,0.78867693,0.456193503,1.670154988,1.670154988,-368.91422,396.1847
JVASP-9446,Mg2GeO4,227,Fd-3m,cubic,3D,3.2819,5.2151,-93.781254,444.07298,596.9094567,1737.715048,67869.77167,8811.906167,0.190564692,0.97309987,0.328774688,0.328774688,-89.175768,456.85376
JVASP-9447,AgSbS2,15,C2/c,monoclinic,2D,1.2459,1.7199,-231.6473733,315.5878267,1659.065361,1513.4641,31029.7091,15372.81233,0.719340986,0.792834529,1.65939408,1.65939408,-209.5408567,349.03761
JVASP-9448,Sc2MnS4,227,Fd-3m,cubic,3D,0.0994,na,-173.51924,203.31685,1066.392063,1409.593781,35417.804,34099.43867,0.455126276,0.603935258,0.647173811,0.647173811,-177.3532,205.82062
JVASP-9449,Mg2PN3,36,Cmc2_1,orthorhombic,3D,4.0472,5.1476,-198.78874,308.49367,2507.269969,1857.740486,56960.101,19768.37633,0.778066625,0.909502566,0.425086573,0.425086573,-106.26591,313.53137
JVASP-9450,Cu3PS4,31,Pmn2_1,orthorhombic,3D,1.0755,na,-246.0905467,304.3527367,2265.647818,1669.825389,30960.37133,17863.26167,0.869007066,0.816395723,0.391055867,0.391055867,-243.34944,303.3714633
JVASP-9451,CaMnO2,1,P1,triclinic,3D,0.063,na,-185.2236657,237.6646933,14.37403719,447.5877268,1822.776853,7404.027347,0.008175139,0.223225387,0.341835547,0.341835547,na,na
JVASP-9454,Ba2Ti3Tl2O10,1,P1,triclinic,3D,0.8049,na,-260.3083633,211.30187,726.9164097,679.6428099,8000.886221,12548.41088,0.39144012,0.343596444,239.1043824,239.1043824,na,na
JVASP-9459,Ca2Ti3O8,12,C2/m,monoclinic,3D,2.7435,3.2674,-375.4940367,377.40627,1275.885603,1145.914487,8204.299333,8058.802033,0.68364005,0.656241728,4.586958283,4.586958283,na,na
JVASP-9461,Ba2YTlCr2O7,123,P4/mmm,tetragonal,3D,0.0143,na,-21.101603,-20.208087,419.6079825,439.257575,368128.0233,368173.47,0.07873469,0.082366036,1.30E-05,1.30E-05,na,na
JVASP-9462,Mg2Sb3O8,12,C2/m,monoclinic,2D,0.0087,na,10.562698,9.793552333,183.3825962,239.9790711,721154.6333,710995.8867,0.011807086,0.013734086,2.83E-05,2.83E-05,na,na
JVASP-9465,Ba2YTlFe2O7,99,P4mm,tetragonal,3D,0.0041,na,5.689043333,8.271532333,173.1727741,174.6659014,688866.064,682501.8357,0.015684622,0.018808719,2.49E-05,2.49E-05,na,na
JVASP-9467,Ba2YTlNi2O7,123,P4/mmm,tetragonal,3D,0.0391,na,77.525736,80.80896867,239.9739343,275.7405329,699079.6813,705636.8793,0.053930236,0.06201829,0.000220639,0.000220639,na,na
JVASP-9471,Zn(CoO2)4,1,P1,triclinic,3D,0.0339,0.0006,28.69269567,60.211603,823.7831863,915.7902731,20520.8586,22363.178,0.269881744,0.311141886,0.002584929,0.002584929,na,na
JVASP-9472,Mg2Co3O8,12,C2/m,monoclinic,3D,0.0101,na,19.43215667,18.862002,109.0458313,96.79588406,149288.7303,150610.9013,0.020638735,0.018569128,3.04E-05,3.04E-05,na,na
JVASP-9476,CaTiPO5,2,P-1,triclinic,3D,0.0111,na,-0.263586,29.39282667,2037.404758,1671.232814,30753.37363,20603.24457,0.626768352,0.592148883,0.002626248,0.002626248,na,na
JVASP-9479,ZnMoF5,2,P-1,triclinic,3D,1.0928,na,-281.5481233,373.4426767,439.3242114,450.8227765,4912.334933,3817.684753,0.249742849,0.260183775,3.784375922,3.784375922,na,na
JVASP-9481,MgTiSiO5,1,P1,triclinic,3D,2.9371,3.3272,-410.82144,434.9102767,632.1529537,645.8301257,3727.551663,3379.7342,0.364770276,0.378602307,19.27863282,19.27863282,na,na
JVASP-9482,MgTiPO5,1,P1,triclinic,3D,0.001,na,113.1250267,113.0166233,1214.929133,937.4550911,15231.45817,9966.486567,0.507000202,0.415669496,0.012028439,0.012028439,na,na
JVASP-9485,TiZnPO5,2,P-1,triclinic,3D,0.001,na,56.32967,56.71743,1589.024328,1494.578829,42980.08033,38788.53533,0.426281869,0.415309791,0.000644187,0.000644187,na,na
JVASP-9489,MgNiF5,2,P-1,triclinic,3D,0.003,0.0015,-21.44057,-13.79248233,909.6568967,881.5361444,13402.82617,10701.17093,0.414273209,0.431141616,0.005317084,0.005317084,na,na
JVASP-9490,MgFeF5,2,P-1,triclinic,3D,0.743,na,-342.1617767,338.5931567,55.82186853,281.7927477,443.2849157,2510.47553,0.033403219,0.165495219,250.4864661,250.4864661,na,na
JVASP-9491,Sr2FeCuSO3,129,P4/nmm,tetragonal,3D,0.0118,na,-33.66932617,-34.47586753,7.167793502,8.766029913,664261.7089,665667.4527,0.004043711,0.004132472,0.000444773,0.000444773,na,na
JVASP-9492,Sr2CrCuSO3,129,P4/nmm,tetragonal,3D,0.0367,na,-156.5980633,193.9129963,573.370881,466.4073732,20991.87386,8135.08387,0.252558858,0.199676372,0.043772314,0.043772314,na,na
JVASP-9493,Sr3Fe2Cu2S2O5,139,I4/mmm,tetragonal,3D,0.0007,na,-2.77460662,-0.6398479,18.48872609,26.53595395,991238.4947,987062.3423,0.000519817,0.001004709,3.41E-05,3.41E-05,na,na
JVASP-9494,ZnCoPO5,2,P-1,triclinic,3D,0.0012,na,-253.31291,78.20625333,620.0152651,511.6547832,5570.6155,4937.4334,0.336231222,0.250925999,0.148147907,0.148147907,na,na
JVASP-9496,Sr2MnSO3,129,P4/nmm,tetragonal,3D,0.0696,na,8.714853333,10.13609533,2112.647927,1894.370542,398435.6985,367622.1867,0.137659433,0.128958416,0.000251308,0.000251308,na,na
JVASP-9497,MnZnSiO5,2,P-1,triclinic,3D,0.9206,na,-404.4598167,333.2777967,777.5166981,804.9617511,4803.8882,5826.1912,0.440680318,0.43425104,6.720749644,6.720749644,na,na
JVASP-9498,ZnSiNiO5,2,P-1,triclinic,3D,0.0026,na,-160.8588063,-13.872469,769.6755852,688.9701176,19802.694,16083.77833,0.287667964,0.170976622,0.003583831,0.003583831,na,na
JVASP-9499,Sr2CrSO3,129,P4/nmm,tetragonal,3D,0.0392,na,51.08647167,49.142753,733.0070478,666.8431203,617729.3093,625342.8613,0.065734375,0.061044848,4.47E-05,4.47E-05,na,na
JVASP-9500,MgCoSiO5,2,P-1,triclinic,3D,0.002,na,66.54632333,64.54280167,2193.233218,2194.162658,387640.5533,382026.7067,0.33849518,0.335465831,2.53E-05,2.53E-05,na,na
JVASP-9501,ZnCrSiO5,2,P-1,triclinic,3D,0.0061,na,26.10357517,25.95692637,58.3200827,57.32848338,213992.4057,214116.2383,0.020692517,0.020637709,3.85E-05,3.85E-05,na,na
JVASP-9502,ZnSnF4,2,P-1,triclinic,3D,3.4909,na,-138.5212567,309.6863033,848.6480364,1289.22891,44280.784,13113.3496,0.329903702,0.632223118,0.618692043,0.618692043,na,na
JVASP-9503,MgCoPO5,2,P-1,triclinic,3D,0.189,na,71.397246,70.46572933,275.2990928,213.5601715,711066.6633,718403.56,0.041416441,0.041354298,0.000201081,0.000201081,na,na
JVASP-9505,Sr2FeSO3,129,P4/nmm,tetragonal,3D,0.0026,na,-8.329751,-10.41510787,163.9411008,104.5200253,1243168.794,1259697.682,0.016248715,0.014558066,1.82E-05,1.82E-05,na,na
JVASP-9507,MgCrSiO5,1,P1,triclinic,3D,0.0022,na,52.525046,51.0705,382.1736174,373.5929797,302185.9673,306036.5433,0.081786725,0.078158639,3.19E-05,3.19E-05,na,na
JVASP-9509,MgFeSiO5,2,P-1,triclinic,3D,0.0044,na,-4.237436467,-5.460684333,129.1245245,127.877452,366913.6033,365081.45,0.010051485,0.010521087,1.57E-05,1.57E-05,na,na
JVASP-9510,MgFePO5,1,P1,triclinic,3D,0.0082,na,-39.144311,-40.50242233,102.3682652,103.8598887,133642.4423,132738.9067,0.017690897,0.018503119,0.00012761,0.00012761,na,na
JVASP-9511,MgMnSiO5,1,P1,triclinic,3D,0.0154,na,-388.44302,307.88588,1035.851761,1021.582153,6384.905933,8582.914867,0.579549009,0.52681378,5.537860242,5.537860242,na,na
JVASP-9512,CrSiO5,1,P1,triclinic,3D,0.7947,1.0475,-389.5576567,432.7863633,1622.177285,765.0013792,9965.47631,3979.15666,0.893629613,0.43875267,11.3824988,11.3824988,na,na
JVASP-9513,VZnSiO5,2,P-1,triclinic,3D,0.0077,na,11.737929,17.98175397,131.3191286,120.1867693,83817.50367,83300.94033,0.029187121,0.030590818,8.35E-05,8.35E-05,na,na
JVASP-9515,CrPO5,1,P1,triclinic,3D,0.7528,na,-397.0018533,386.9996933,163.6988383,614.4037111,1084.0206,3731.342503,0.097669149,0.353705854,18.50852258,18.50852258,na,na
JVASP-9516,ZnFePO5,2,P-1,triclinic,3D,0.0058,na,-81.318009,-83.52778967,154.8259741,164.8250372,243299.848,242246.576,0.0712664,0.071183356,0.000176971,0.000176971,na,na
JVASP-9519,MgSiNiO5,2,P-1,triclinic,3D,0.0025,0.0017,-1.752039,81.14532233,657.6763751,1040.487136,27719.52167,30887.41867,0.152319076,0.236475231,0.001154486,0.001154486,na,na
JVASP-9520,MgNiPO5,2,P-1,triclinic,3D,0.0074,na,-212.22727,-140.513662,752.2131362,185.3334851,16509.74423,10048.5015,0.285505066,0.072148128,0.005137882,0.005137882,na,na
JVASP-9525,Zn2Ni3O8,12,C2/m,monoclinic,3D,0.7126,0.5869,-424.7208533,433.2438433,1291.443717,456.7260344,7197.994367,2426.696367,0.736396105,0.268387572,2.569856719,2.569856719,na,na
JVASP-9527,VZnSF5,2,P-1,triclinic,3D,0.1214,0.0023,-27.19523367,-29.23084333,68.5303594,56.89994995,28873.07827,28255.25843,0.014841237,0.012394437,0.000305146,0.000305146,na,na
JVASP-9528,MgVSF5,1,P1,triclinic,3D,0.0033,na,-32.87359233,-35.59032267,89.66433773,96.99827406,26651.10363,27198.45257,0.035298568,0.038151554,0.001009672,0.001009672,na,na
JVASP-9529,MgTiO2,12,C2/m,monoclinic,3D,0.0042,na,6.6088074,9.03878837,218.464316,197.9520051,737624.3128,746736.0926,0.006307643,0.005557964,0.000176484,0.000176484,na,na
JVASP-9532,ZnCoF4,1,P1,triclinic,3D,0.8479,3.5214,-422.5491267,466.99133,62.132603,29.7000114,373.9550667,136.879428,0.037227902,0.017808987,96.53703269,96.53703269,na,na
JVASP-9533,Re2O7,63,Cmcm,orthorhombic,2D,0.0257,na,-43.57805427,-38.22733967,822.0630622,619.7609839,170947.947,149058.7357,0.093643243,0.07250575,4.43E-05,4.43E-05,na,na
JVASP-9536,MnZnF4,1,P1,triclinic,3D,1.6058,0.0137,-69.13659433,379.7428533,289.4590952,287.6317584,60416.32633,1977.7586,0.092279796,0.170884363,0.275951417,0.275951417,na,na
JVASP-9537,ZnNiF4,2,P-1,triclinic,3D,0.6947,na,-391.0551433,442.05303,148.2033726,44.70887445,954.3931933,244.86866,0.088238237,0.026738353,18.98156438,18.98156438,na,na
JVASP-9540,VZnF4,2,P-1,triclinic,3D,0.046,na,-104.3485667,-107.7251157,783.6019511,607.8052066,71795.161,51952.149,0.218604099,0.186794068,0.000120835,0.000120835,na,na
JVASP-9541,YFeO3,194,P6_3/mmc,hexagonal,3D,0.0072,na,6.854979,7.449708333,461.0585391,475.9843124,455747.1867,459521.7967,0.035980645,0.036399418,1.03E-05,1.03E-05,na,na
JVASP-9542,YCrO3,194,P6_3/mmc,hexagonal,3D,0.0073,na,10.985087,9.589558,223.14836,223.3702557,1159025.087,1155230.873,0.035911868,0.032497035,8.15E-06,8.15E-06,na,na
JVASP-9543,Ca2Cr3O8,12,C2/m,monoclinic,3D,0.0103,0.0027,65.81111167,66.77428433,363.1701931,374.2203468,74761.42333,76326.85867,0.084922696,0.088023092,9.92E-05,9.92E-05,na,na
JVASP-9546,MgVF4,2,P-1,triclinic,3D,0.9161,0.2667,-324.2157933,482.8058667,198.8023,41.46559228,1806.809833,189.334727,0.118145687,0.024843198,15.15846209,15.15846209,na,na
JVASP-9547,MgMnO2,11,P2_1/m,monoclinic,3D,0.0165,na,-36.96484617,-19.159313,143.3503404,160.4741929,83742.773,80331.27933,0.048261483,0.051095641,0.000144177,0.000144177,na,na
JVASP-9548,Mg2Bi2O5,14,P2_1/c,monoclinic,1D,1.6129,na,-131.0950633,337.0408533,882.2784731,496.9093818,52997.32167,4282.0735,0.315113013,0.286402682,0.634140308,0.634140308,na,na
JVASP-9555,Ca2Sb2O5,55,Pbam,orthorhombic,3D,1.8179,na,-341.1602733,154.4631733,1311.723294,847.3521221,11481.48847,32293.72767,0.706075382,0.349117106,2.34118899,2.34118899,na,na
JVASP-9556,Mg2Sn2O5,55,Pbam,orthorhombic,3D,1.2109,na,-139.12687,391.7780133,1428.373402,2003.486558,72947.26133,13057.31673,0.428604159,1.058909187,0.393470712,0.393470712,na,na
JVASP-9557,Ca2Sn2O5,55,Pbam,orthorhombic,3D,1.1397,na,-150.7325267,263.1137333,1672.707146,1680.193266,69540.96833,24139.005,0.486585869,0.760431475,0.464343415,0.464343415,na,na
JVASP-9558,Ca2Bi2O5,55,Pbam,orthorhombic,3D,1.5276,na,-105.51444,182.4306667,793.0946414,955.3445045,75246.957,24982.63547,0.226947461,0.409021766,0.721143289,0.721143289,na,na
JVASP-9566,Mg2Mn2O5,55,Pbam,orthorhombic,3D,0.0065,na,9.220533333,18.124058,1063.624972,997.2820926,125220.193,120706.7553,0.155405955,0.157504303,3.42E-05,3.42E-05,na,na
JVASP-9573,CaCO3,167,R-3c,trigonal,3D,5.1687,6.9049,-421.4432833,406.6842333,1687.168022,989.8787214,9503.814933,5861.165833,0.955685275,0.567247334,2.587283262,2.587283262,-414.0915467,429.6015967
JVASP-9574,GaAsO4,152,P3_121,trigonal,3D,3.1975,na,-93.69773,484.5826333,598.6977253,234.2850341,70550.66533,997.63539,0.184204924,0.139828611,0.355465107,0.355465107,-123.4284833,473.74604
JVASP-9577,ErAgSe2,19,P2_12_12_1,orthorhombic,3D,1.2547,na,-240.37018,132.530783,1758.832001,661.7504597,27566.72123,34932.72467,0.73519072,0.271164283,1.325029445,1.325029445,-253.0967233,135.14811
JVASP-9578,Rb2Mn3Se4,72,Ibam,orthorhombic,3D,0.0098,na,-50.75417667,-53.07007967,647.8058786,681.8920925,218976.78,214585.6367,0.102439732,0.110202943,1.32E-05,1.32E-05,-296.2289233,301.1685767