JID,Composition,Spg.numb.,Spg.symb.,Cryst.,Dimensionality,OPT SCF gap, MBJ gap,n-Seebeck,p-Seebeck,n-powerfact,p-powerfact,n-cond,p-cond,n-ZT,p-ZT,Avg.elec.mass,Avg.hole mass,n-mp-Seeb,p-mp-Seeb
JVASP-20161,Al3Pt5,55,Pbam,orthorhombic,3D,0.0049,na,-23.492015,-23.717598,1565.733582,1585.265582,2465459.567,2424103.767,0.023349369,0.023894474,1.25E-06,1.25E-06,-22.22439067,-22.743657
JVASP-20163,Sb7Mo3,229,Im-3m,cubic,3D,0.0502,na,7.756277967,6.813777767,43.89070733,33.90283524,729568.1233,730230.7033,0.002679763,0.00204768,3.67E-06,3.67E-06,3.7497621,2.5719485
JVASP-20164,ZrP2,62,Pnma,orthorhombic,3D,0.001,na,-2.608271467,-2.728398167,770.2892232,883.4707368,867939.8967,865303.3733,0.025282046,0.029765964,4.42E-06,4.42E-06,-5.568442,-5.750726333
JVASP-20165,N2,205,Pa3,cubic,3D,7.1651,na,-342.60056,503.66562,1654.484578,413.1059685,14095.698,1628.4591,0.867544463,0.246700772,1.674557789,1.674557789,-398.77924,517.32494
JVASP-20166,Mo2C,60,Pbcn,orthorhombic,3D,0.0032,na,-2.099944737,-2.045570383,503.4819902,526.936355,3155295.6,3154265.833,0.007327905,0.007578059,9.29E-07,9.29E-07,-1.4092058,-1.4533724
JVASP-20167,Mg3N2,206,Ia3,cubic,3D,1.9166,na,-67.38259333,448.82526,404.1587306,637.0741081,89013.632,3162.535233,0.108361541,0.373588775,0.188455931,0.188455931,-58.221909,448.37211
JVASP-20168,ThBe13,226,Fm-3c,cubic,3D,0.0053,na,-1.002963767,-2.117433067,3.691563939,16.43902597,3669778.967,3666542.3,4.40E-05,0.000196629,7.49E-07,7.49E-07,-1.5487752,-2.8206823
JVASP-20170,Be12Cr,139,I4/mmm,tetragonal,3D,0.0071,0.0039,12.557601,13.63042953,336.0613177,399.2626731,2220802.533,2233620.867,0.006091483,0.007240511,1.45E-06,1.45E-06,9.9668375,11.0338459
JVASP-20172,Pt3O4,223,Pm-3n,cubic,3D,0.0148,na,-16.616262,-16.341254,548.3484523,528.1169937,1986049,1977695.3,0.010297531,0.009970418,1.46E-06,1.46E-06,-19.797451,-19.418832
JVASP-20175,NdB4,127,P4/mbm,tetragonal,3D,0.0099,na,-8.561507667,-5.155996667,489.3192801,518.8036841,1498681.567,1491699.367,0.012068863,0.011426363,2.09E-06,2.09E-06,-9.359738667,-6.115760667
JVASP-20176,Re2P,62,Pnma,orthorhombic,3D,0.0034,na,-4.4398846,-5.277998433,212.9279782,210.8402907,3144727.133,3138663.6,0.003224482,0.003179444,8.80E-07,8.80E-07,-9.546666467,-10.24335043
JVASP-20177,Ta5N6,193,P6_3/mcm,hexagonal,3D,0.0044,na,-0.2188496,-1.143490883,7.873816865,18.15808817,1730712.033,1731582.067,0.000184267,0.000415101,1.64E-06,1.64E-06,na,na
JVASP-20179,Al12Re,204,Im3,cubic,3D,0.0168,na,-2.6267835,-1.5785817,17.73981895,6.40922569,2570991.4,2572002.8,0.000256998,9.43E-05,1.12E-06,1.12E-06,na,na
JVASP-20181,ThRe2,194,P6_3/mmc,hexagonal,3D,0.0018,na,-1.842864767,-2.1191934,193.9089131,175.3009691,2840084.1,2839167.1,0.003038495,0.002718999,9.77E-07,9.77E-07,-1.325216133,-1.708480767
JVASP-20184,Be2Mo,194,P6_3/mmc,hexagonal,3D,0.0047,na,18.43465467,18.63466967,1161.077173,1219.492166,2496954.233,2522608.033,0.014227647,0.014833842,1.20E-06,1.20E-06,15.27072067,15.38455533
JVASP-20186,HfRe2,194,P6_3/mmc,hexagonal,3D,0.0044,na,2.010784533,1.6145062,179.4230506,172.3950991,2926535.767,2927340.367,0.002608753,0.002486385,9.40E-07,9.40E-07,1.384232667,0.958971067
JVASP-20192,MnAl6,63,Cmcm,orthorhombic,3D,0.0154,na,-0.186178783,-0.833171703,4.913060908,12.65170152,1679250.933,1677829.7,0.000150611,0.000335404,2.16E-06,2.16E-06,0.54552885,-0.008152567
JVASP-20193,Tm2O3,206,Ia3,cubic,3D,4.1937,na,-117.23177,410.28072,737.9133728,497.9405299,53692.63733,2958.1164,0.269056755,0.293905752,0.494746396,0.494746396,-113.15596,407.54208
JVASP-20195,Li15Ge4,220,I-43d,cubic,3D,0.2017,na,48.66855133,45.89427133,1053.553597,967.9548759,444794.8967,459555.6967,0.100667189,0.089435089,5.80E-06,5.80E-06,52.343808,49.489932
JVASP-20197,Al5Rh2,194,P6_3/mmc,hexagonal,3D,0.0026,na,-1.779726853,-2.025248023,11.84683398,17.09081356,1174605.157,1172717.1,0.00059408,0.000860083,2.58E-06,2.58E-06,-2.320081087,-2.2805484
JVASP-20199,Nd2C3,220,I-43d,cubic,3D,0.0113,na,-19.555301,-13.891005,156.8848927,77.80849991,410253.33,403236.38,0.009909929,0.00487061,8.22E-06,8.22E-06,-20.776345,-15.07995
JVASP-20201,Ba2Mg17,166,R-3m,trigonal,3D,0.0015,na,-12.368396,-11.43357793,245.4911793,219.992777,1166382.2,1157405.933,0.008136329,0.00731658,2.53E-06,2.53E-06,-5.9627943,-4.875031833
JVASP-20202,SiF4,217,I-43m,cubic,0D,7.8517,na,-170.36971,490.73165,1053.616376,1053.180245,36299.25767,4373.353333,0.44167506,0.609159142,0.7475685,0.7475685,-156.68606,519.46817
JVASP-20203,TiAs,194,P6_3/mmc,hexagonal,3D,0.0203,na,-13.94348083,-12.6956205,695.7942344,677.8391559,1193303.633,1186161.79,0.025818599,0.025141142,2.61E-06,2.61E-06,-12.97542966,-11.6829244
JVASP-20204,Ti3Al,194,P6_3/mmc,hexagonal,3D,0.0045,na,-1.508743,1.006936667,1366.166626,1345.049308,599494.9433,594704.8533,0.051394858,0.051901296,6.38E-06,6.38E-06,-2.437807667,-0.576151667
JVASP-20205,NdNi5,191,P6/mmm,hexagonal,3D,0.0031,na,-7.970577533,-7.5761977,133.2785946,121.8175744,2010248.3,2008262.267,0.002241619,0.002037819,1.56E-06,1.56E-06,na,na
JVASP-20206,SrGa4,139,I4/mmm,tetragonal,3D,0.0008,na,-16.0091386,-14.90880203,3188.200101,2824.099851,3305991.5,3218742.433,0.032214345,0.02946297,9.42E-07,9.42E-07,-13.50962433,-9.375723667
JVASP-20207,ThOs2,227,Fd-3m,cubic,3D,0.0023,na,0.70959827,2.231425667,0.692556418,6.84808353,1375403.3,1375321.4,1.52E-05,0.000150256,2.27E-06,2.27E-06,4.2722435,6.2468823
JVASP-20208,SrAu5,191,P6/mmm,hexagonal,3D,0.0066,na,-7.241290233,-6.7760014,312.0215237,276.2782185,6999051.567,6958657.2,0.002165873,0.001859169,4.92E-07,4.92E-07,na,na
JVASP-20210,SiIr3,140,I4/mcm,tetragonal,3D,0.0065,0.0038,-19.22639233,-18.555845,419.6362065,386.477641,1148410.033,1142249,0.012980327,0.012055709,2.70E-06,2.70E-06,-18.587078,-17.794606
JVASP-20211,NbAl3,139,I4/mmm,tetragonal,3D,0.0678,na,15.707772,26.07729105,500.9843237,634.7004388,406058.06,414041.28,0.033244707,0.044659056,7.90E-06,7.90E-06,11.61910833,18.903312
JVASP-20212,CaBe13,226,Fm-3c,cubic,3D,0.0069,na,-35.87862767,-35.270083,2107.041852,1951.764642,1636822.233,1568969.433,0.048534402,0.045579363,1.79E-06,1.79E-06,-34.641597,-33.403895
JVASP-20216,YbCd,221,Pm-3m,cubic,3D,0.0054,na,-2.0831824,-1.9200492,27.0521727,22.94999009,6233723.8,6225264.2,0.000172964,0.000146775,4.55E-07,4.55E-07,-3.9042617,-3.7972776
JVASP-20218,KO2,139,I4/mmm,tetragonal,3D,0.0209,na,2.652941867,2.169237233,167.5647968,166.6542175,628144.7,626774.3033,0.009430988,0.009143186,5.05E-06,5.05E-06,na,na
JVASP-20219,Ta2Ni,140,I4/mcm,tetragonal,3D,0.0009,na,8.099590533,7.884613567,270.509539,272.1405938,2930185.067,2933783,0.004244513,0.00425538,9.74E-07,9.74E-07,6.532955577,6.27141711
JVASP-20221,HfBe13,226,Fm-3c,cubic,3D,0.01,na,1.332033733,0.653078007,6.214481621,1.494431564,3502470.3,3503853.3,7.55E-05,1.81E-05,7.91E-07,7.91E-07,2.1747871,1.5579947
JVASP-20222,CaCu5,191,P6/mmm,hexagonal,3D,0.0003,na,-3.0835064,-3.193659433,184.0397697,199.1688649,7888912.2,7870299.367,0.000639914,0.000693369,4.12E-07,4.12E-07,na,na
JVASP-20224,AlIr,221,Pm-3m,cubic,3D,0.0022,na,-8.6496542,-8.1080278,345.7404759,301.9730429,4621178.4,4593436.5,0.002851243,0.002511485,6.09E-07,6.09E-07,-6.1434824,-5.3935014
JVASP-20225,TbTl3,221,Pm-3m,cubic,3D,0.0126,na,20.791984,20.591417,2938.688231,2928.334642,6797694.6,6906344.5,0.017388736,0.017219151,4.08E-07,4.08E-07,21.721823,21.780557
JVASP-20226,MoP2,36,Cmc2_1,orthorhombic,3D,0.0152,na,-6.250902853,-6.495470003,221.1898968,229.8647182,924936.2667,922238.7767,0.011525419,0.012296453,3.17E-06,3.17E-06,-7.490799267,-7.268635133
JVASP-20228,BMo,141,I4_1/amd,tetragonal,3D,0.001,na,-6.3017189,-6.5222762,218.8317871,233.5266291,5587882.367,5572144.367,0.001652082,0.001768806,5.24E-07,5.24E-07,-6.443121333,-6.6843137
JVASP-20229,WC,187,P-6m2,hexagonal,3D,0.0435,na,18.40529383,18.6398683,838.7085562,880.1850277,2178366.733,2218051.833,0.014585353,0.015053319,1.28E-06,1.28E-06,18.83426553,19.21011827
JVASP-20230,CeSi2,141,I4_1/amd,tetragonal,3D,0.001,na,27.68368933,27.10392333,1868.564047,1799.687131,2507039.3,2519557.167,0.035761933,0.034262989,1.12E-06,1.12E-06,na,na
JVASP-20231,CaAs3,2,P-1,triclinic,3D,0.0038,na,-57.91581333,-7.787051933,1284.559457,1023.333741,205944.1067,188461.4833,0.142316874,0.087512643,2.36E-05,2.36E-05,-58.67138433,-6.277349233
JVASP-20232,NaO2,58,Pnnm,orthorhombic,3D,0.0085,na,24.84729397,24.18152263,422.3621438,414.5525738,541711.5733,543332.0533,0.0576316,0.056351375,6.46E-06,6.46E-06,22.3892119,21.60718073
JVASP-20233,BaAl4,139,I4/mmm,tetragonal,3D,0.0024,na,-24.31472867,-20.75664167,1393.14797,966.2564644,2139488.2,2075499.2,0.020260041,0.014406175,1.77E-06,1.77E-06,-26.341869,-23.94673233
JVASP-20234,CeNi5,191,P6/mmm,hexagonal,3D,0.0117,na,1.8983641,1.9410079,378.1997928,382.1379169,1521111.833,1521882.033,0.008068923,0.00813333,1.95E-06,1.95E-06,3.8374939,3.462501033
JVASP-20235,CeSn3,221,Pm-3m,cubic,3D,0.0014,na,21.321299,21.100075,2040.172743,2011.033654,4487863.3,4517013,0.019278443,0.01889594,6.28E-07,6.28E-07,24.321023,24.208996
JVASP-20236,ErPt3,221,Pm-3m,cubic,3D,0.0158,na,24.200146,24.228048,2655.033435,2681.254369,4533504.2,4567737.8,0.023343861,0.023437956,6.22E-07,6.22E-07,na,na
JVASP-20237,YGa2,191,P6/mmm,hexagonal,3D,0.003,na,-3.934814433,-4.196052843,204.4105619,209.5100007,4506836.533,4494628.767,0.002408397,0.002467776,6.43E-07,6.43E-07,na,na
JVASP-20238,Fe2B,140,I4/mcm,tetragonal,3D,0.0013,na,-19.85668133,-20.18820833,1036.461529,1073.921356,2921379.633,2912626.367,0.017827113,0.018373237,1.09E-06,1.09E-06,4.466825333,4.591297333
JVASP-20239,FeRh,221,Pm-3m,cubic,3D,0.0065,na,-9.5294299,-9.4942742,456.8754892,452.7576654,5031112.4,5022758.2,0.00361638,0.003586579,5.56E-07,5.56E-07,na,na
JVASP-20241,ThTe,221,Pm-3m,cubic,3D,0.0034,na,-3.5836345,-2.6606016,49.403636,27.16356471,3846905.3,3837311.6,0.000491056,0.000270932,7.69E-07,7.69E-07,-3.5544715,-2.5678935
JVASP-20242,TbSi,62,Pnma,orthorhombic,3D,0.0014,na,-10.90640073,-11.5353727,210.2504491,231.1631905,2323415.667,2312366.8,0.007328395,0.008068694,1.86E-06,1.86E-06,-10.8123395,-11.45091527
JVASP-20243,HoFe2,227,Fd-3m,cubic,3D,0.0228,na,-14.57731233,-14.461693,474.2372689,465.21483,2231725.433,2224412.233,0.008186874,0.008030734,1.30E-06,1.30E-06,61.440971,61.20677
JVASP-20244,Dy4Sb3,220,I-43d,cubic,3D,0.0138,0.0113,-0.73847548,-1.6692376,0.52725873,2.691587985,966833.3433,965989.1833,2.42E-05,0.000123622,2.79E-06,2.79E-06,-4.5304526,-5.3039525
JVASP-20245,NdB6,221,Pm-3m,cubic,3D,0.0119,na,5.7705471,5.8593194,218.7117739,227.5351852,6568076.2,6627568.4,0.001331576,0.001389779,4.26E-07,4.26E-07,na,na
JVASP-20246,Nb3Os,223,Pm-3n,cubic,3D,0.0067,na,-8.7462442,-9.1861373,331.8819633,364.8473717,4338508.5,4323598.5,0.003305076,0.003634883,6.36E-07,6.36E-07,-9.7224066,-10.214982
JVASP-20247,LiZn,227,Fd-3m,cubic,3D,0.0183,na,-1.617527533,-1.602537133,31.7336876,31.1149811,12128781.67,12115834.67,0.000106778,0.000104774,2.35E-07,2.35E-07,-1.6608258,-1.6852961
JVASP-20248,BaMg2,194,P6_3/mmc,hexagonal,3D,0.003,na,9.423661027,9.4814807,204.8354617,268.7109026,1329253.51,1333461.4,0.007426621,0.009751661,2.48E-06,2.48E-06,5.8643112,5.8591397
JVASP-20249,TaAs,109,I4_1md,tetragonal,3D,0.0008,na,-45.83262233,34.60987133,780.4429937,443.3818186,351887.6267,355141.8933,0.033982833,0.020645867,1.98E-05,1.98E-05,-55.77057733,43.68916633
JVASP-20250,YbCu,62,Pnma,orthorhombic,3D,0.0009,na,-0.898627157,-1.07279867,5.850581368,6.482289178,3733904.967,3730953.967,7.83E-05,8.46E-05,7.83E-07,7.83E-07,-2.193621267,-2.243370067
JVASP-20251,ErNi2,227,Fd-3m,cubic,3D,0.0225,0.0276,-17.485626,-16.32202933,591.1301911,510.5026467,1933395.8,1916239.067,0.010524396,0.009074561,1.55E-06,1.55E-06,-16.622061,-15.597724
JVASP-20252,TiMn2,194,P6_3/mmc,hexagonal,3D,0.0014,na,6.097044433,5.965344067,134.871556,132.8602576,2019575.167,2020927.3,0.003180716,0.003125854,1.41E-06,1.41E-06,4.2415732,4.090661033
JVASP-20253,TiAl,123,P4/mmm,tetragonal,3D,0.0053,na,-10.3028568,-10.31004913,561.626712,556.9644099,4610366.5,4598828.467,0.005310178,0.005275628,6.27E-07,6.27E-07,na,na
JVASP-20254,ErCu,221,Pm-3m,cubic,3D,0.0244,na,9.2617281,9.1623084,500.5715053,492.3534904,5835553.7,5864989.1,0.003502901,0.003427826,4.81E-07,4.81E-07,9.4913179,9.3883647
JVASP-20255,TmGa2,74,Imma,orthorhombic,3D,0.0012,na,9.020279967,8.6368088,292.7036235,275.4674009,3574470.7,3592636.533,0.003839126,0.003626911,8.11E-07,8.11E-07,9.851854767,9.597048667
JVASP-20256,PuO2,225,Fm-3m,cubic,3D,0.0034,0.0246,-29.565668,-29.65428267,1015.449057,1016.156223,1161669.933,1155541.733,0.034594185,0.034710122,2.45E-06,2.45E-06,-25.917002,-26.022495
JVASP-20257,NbRh,123,P4/mmm,tetragonal,3D,0.0072,na,3.668830367,3.579171033,175.3203622,168.9299438,10801684.67,10812306.67,0.000650843,0.000625765,2.59E-07,2.59E-07,4.149474167,4.1610292
JVASP-20258,NbSb2,12,C2/m,monoclinic,3D,0.0037,na,-2.9697435,18.42279667,101.5312491,225.0708145,314665.1633,320217.8867,0.00723025,0.017439148,1.07E-05,1.07E-05,-2.787443767,15.135049
JVASP-20259,Al5Co2,194,P6_3/mmc,hexagonal,3D,0.0022,na,-5.644134352,-6.242584883,53.21281835,74.72072491,957933.2167,953470.2067,0.003917107,0.005593491,3.30E-06,3.30E-06,-5.65066282,-6.063529933
JVASP-20260,HoCu,221,Pm-3m,cubic,3D,0.009,na,9.5249527,9.4246051,524.0831439,515.7182004,5776629.8,5806121.7,0.003705964,0.003627572,4.85E-07,4.85E-07,9.5972888,9.5052281
JVASP-20261,NbGa3,139,I4/mmm,tetragonal,3D,0.0057,na,-11.38744491,-6.4216627,662.0855672,472.955846,631302.0667,617546.5733,0.024085734,0.01755507,5.00E-06,5.00E-06,0.408229333,4.758767
JVASP-20262,CeB4,127,P4/mbm,tetragonal,3D,0.0016,na,19.406763,18.81806467,677.0524259,636.9502548,1437704.267,1446408.833,0.01816966,0.017085762,2.28E-06,2.28E-06,28.97665733,28.26662333
JVASP-20263,CaGa4,139,I4/mmm,tetragonal,3D,0.0015,na,-4.737602967,-0.8198389,251.9270208,121.0538694,3249373.2,3230665.867,0.00225878,0.001500368,1.08E-06,1.08E-06,-3.511936077,-0.439984767
JVASP-20264,NdSn3,221,Pm-3m,cubic,3D,0.0045,na,4.9052375,4.2064091,219.9861708,162.3770272,9142717.5,9177017.7,0.001038544,0.000768443,3.02E-07,3.02E-07,na,na
JVASP-20265,HoPd3,221,Pm-3m,cubic,3D,0.0255,na,1.9643021,2.0763554,16.74671798,18.73467079,4340234,4345529.3,0.000154065,0.000172314,6.42E-07,6.42E-07,na,na
JVASP-20266,YbNi2,227,Fd-3m,cubic,3D,0.0198,na,-17.717036,-17.727359,703.7190408,701.8064756,2241904.8,2233208.6,0.012459047,0.012428905,1.25E-06,1.25E-06,-16.677232,-16.847692
JVASP-20267,Ba2Sn,62,Pnma,orthorhombic,3D,0.0077,na,-111.155373,170.9943433,662.8634342,1022.599579,56570.69933,38046.32067,0.211003173,0.32725949,0.000640275,0.000640275,-111.5432723,151.7946373
JVASP-20270,Mg3As2,206,Ia3,cubic,3D,1.5879,na,-153.03486,315.71321,1854.998902,1687.820858,79206.88167,16933.27033,0.538907765,0.889235724,0.273249255,0.273249255,-137.45729,322.56365
JVASP-20272,HfB2,191,P6/mmm,hexagonal,3D,0.0153,na,-32.42085833,-33.48163933,4421.504951,4497.145586,4192408.467,3989968.267,0.043624483,0.046150924,6.90E-07,6.90E-07,-25.577362,-26.97663267
JVASP-20273,CuSe2,58,Pnnm,orthorhombic,3D,0.0017,na,4.757340667,4.283269887,113.0411113,94.78940306,4287180.2,4296906.167,0.001315291,0.001101932,6.64E-07,6.64E-07,4.131150233,3.7607674
JVASP-20275,V3Ir,223,Pm-3n,cubic,3D,0.004,na,12.763254,12.710817,480.2639811,478.1381586,2948201.7,2959419.1,0.006492753,0.006446208,9.48E-07,9.48E-07,10.710553,10.559447
JVASP-20277,LiHg,221,Pm-3m,cubic,3D,0.0216,na,-3.085508,-3.4022789,126.2478895,153.1329604,13260832,13229056,0.000393155,0.000478545,2.10E-07,2.10E-07,na,na
JVASP-20278,HoTl3,221,Pm-3m,cubic,3D,0.0043,na,20.135513,19.719391,2982.135812,2901.800624,7355327.6,7462435.2,0.016698467,0.016119097,3.80E-07,3.80E-07,21.598177,21.491188
JVASP-20279,DyP,225,Fm-3m,cubic,3D,0.1219,na,-8.181481767,-6.1314271,87.38984943,48.20075048,1305560.667,1282125.867,0.002485283,0.001403349,2.18E-06,2.18E-06,-4.2015174,-1.663413
JVASP-20281,PrNi2,227,Fd-3m,cubic,3D,0.0049,na,8.354115633,7.019421533,158.7184978,112.5796049,2274189.133,2284846.733,0.003203879,0.002275534,1.16E-06,1.16E-06,7.0074588,6.0146739
JVASP-20282,LuAs,225,Fm-3m,cubic,3D,0.153,na,-11.255032,-9.606921,158.8724677,111.8458161,1254166.433,1211856.8,0.004773636,0.003428054,2.28E-06,2.28E-06,na,na
JVASP-20284,Yb5Sb3,193,P6_3/mcm,hexagonal,3D,0.0017,na,-2.074509333,3.3358432,50.91593716,56.04004203,278646.6367,283554.4167,0.00471658,0.004649085,1.21E-05,1.21E-05,-19.36493433,-18.28889267
JVASP-20285,HfBe5,191,P6/mmm,hexagonal,3D,0.022,na,19.80712533,20.25429967,975.1314201,1030.738802,2474778.433,2504223.667,0.014655238,0.015449884,1.14E-06,1.14E-06,18.338891,18.953947
JVASP-20286,PrTl3,221,Pm-3m,cubic,3D,0.0036,na,14.29348,14.994339,1229.614135,1370.24979,6018564.1,6094598.4,0.007774566,0.008658379,4.71E-07,4.71E-07,19.991365,20.831202
JVASP-20287,HfCo,221,Pm-3m,cubic,3D,0.002,0.0247,-14.900575,-15.143983,1678.443726,1728.567336,7559633.3,7537131.2,0.009690427,0.010013686,3.66E-07,3.66E-07,na,na
JVASP-20289,Tb5Si3,193,P6_3/mcm,hexagonal,3D,0.0044,na,-42.79641767,-42.60048567,1260.460469,1217.835955,687969.7433,669539.5767,0.066341185,0.064163536,4.48E-06,4.48E-06,-38.61453667,-38.314108
JVASP-20290,Sc2O3,206,Ia3,cubic,3D,3.8457,na,-205.10961,407.66475,1074.378749,895.7804951,25537.91233,5390.080867,0.518848769,0.522896386,1.218955445,1.218955445,-212.78877,402.57881
JVASP-20291,Sm2O3,206,Ia3,cubic,3D,3.8764,na,-112.41441,435.26111,520.9460656,369.9494964,41223.873,1952.7323,0.213194388,0.218887916,0.419623616,0.419623616,-129.03722,438.80851
JVASP-20292,NdF3,165,P-3c1,trigonal,3D,7.8076,na,-440.2436567,397.3470467,328.407072,453.2412801,1780.534,2820.045267,0.195018039,0.263924691,14.36463502,14.36463502,-454.6370333,404.8437667
JVASP-20293,N2,205,Pa3,cubic,3D,7.1651,na,-342.85222,503.42656,1660.26233,414.260642,14124.165,1634.5621,0.871010366,0.247390408,1.675137439,1.675137439,-397.13323,520.13169
JVASP-20297,U3O8,189,P-62m,hexagonal,3D,0.0246,na,-41.612984,-35.02751367,23.55385604,20.85844838,34045.26217,33737.456,0.009553649,0.008274759,0.000718255,0.000718255,-84.40150233,-78.21516767
JVASP-20298,Th3Ge2,127,P4/mbm,tetragonal,3D,0.0014,na,-12.1673962,-11.78519,534.0599744,496.5346148,1595243.1,1587066.033,0.012192351,0.011449383,1.85E-06,1.85E-06,-5.62947,-5.357869533
JVASP-20299,PuBe13,226,Fm-3c,cubic,3D,0.0052,na,-73.138187,-73.105491,1715.415891,1693.18824,320686.7733,316814.6433,0.172121742,0.170368207,1.12E-05,1.12E-05,-2.1873007,-1.9987933
JVASP-20301,U3Sb4,220,I-43d,cubic,3D,0.0031,na,40.45378,42.243816,107.8028639,118.3425041,65873.70367,66315.41167,0.026005516,0.028508327,5.96E-05,5.96E-05,50.69392,51.667145
JVASP-20302,Pd16S7,217,I-43m,cubic,3D,0.0156,na,4.521780867,3.117131467,9.406778651,4.478928467,460067.8667,460960.6867,0.000863423,0.000412944,5.46E-06,5.46E-06,9.90495,8.0296967
JVASP-20304,ErCo3,166,R-3m,trigonal,3D,0.0102,na,-17.499377,-17.89502933,282.9294535,295.3264129,928757.3333,927059.88,0.013590667,0.014236343,2.80E-06,2.80E-06,-29.963543,-30.36028167
JVASP-20305,DyAl,57,Pbcm,orthorhombic,3D,0.0023,na,11.07994463,11.5429478,224.1319667,252.0349743,911547.99,916361.4233,0.00586011,0.006461117,4.05E-06,4.05E-06,15.3532697,15.59499163
JVASP-20306,CoAs3,204,Im3,cubic,3D,0.0205,na,-187.89494,58.580174,874.7707451,275.9587703,24777.87633,80416.07767,0.279788318,0.077089342,0.000482519,0.000482519,-220.30412,64.238644
JVASP-20308,Ti2O3,167,R-3c,trigonal,3D,0.006,na,-18.47461753,-16.42529477,384.5259989,330.2197398,618787.48,614785.0667,0.017939611,0.015417694,5.01E-06,5.01E-06,-20.45234133,-17.98302193
JVASP-20309,KF,225,Fm-3m,cubic,3D,6.4609,na,-163.96103,573.69408,1127.238246,1222.996391,41930.92467,3715.9036,0.455880395,0.7178193,0.791479909,0.791479909,-134.61927,566.44865
JVASP-20310,AlF3,167,R-3c,trigonal,3D,8.2402,11.0135,-115.3196567,490.6856833,663.4883247,990.3422422,49891.27133,4129.466967,0.241060123,0.579292156,0.408339225,0.408339225,-132.2787667,481.85097
JVASP-20314,Nd4Sb3,220,I-43d,cubic,3D,0.0166,na,2.399753533,0.947459837,4.785144707,0.746169634,830924.9433,831219.94,0.000271982,4.23E-05,3.17E-06,3.17E-06,3.0601562,1.5436023