JID,Composition,Spg.numb.,Spg.symb.,Cryst.,Dimensionality,OPT SCF gap, MBJ gap,n-Seebeck,p-Seebeck,n-powerfact,p-powerfact,n-cond,p-cond,n-ZT,p-ZT,Avg.elec.mass,Avg.hole mass,n-mp-Seeb,p-mp-Seeb
JVASP-8724,Mg3Ir,194,P6_3/mmc,hexagonal,2D,0.0011,na,-0.380497533,0.4103644,242.4753241,310.5651743,4173485.967,4171893.733,0.002258291,0.002908749,7.01E-07,7.01E-07,1.409295033,2.097397367
JVASP-8725,LiPt7,225,Fm-3m,cubic,3D,0.0016,na,3.123178267,3.120563867,83.07162474,82.9695235,8516460.9,8520252.1,0.000395333,0.000394465,3.30E-07,3.30E-07,na,na
JVASP-8726,Li5Sn2,166,R-3m,trigonal,3D,0.024,na,2.798616033,2.5627923,125.7394605,111.6668659,3508386.167,3523010.233,0.001427034,0.001260596,8.03E-07,8.03E-07,na,na
JVASP-8727,TaPd3,139,I4/mmm,tetragonal,3D,0.0004,na,4.070658733,3.9492498,132.4045984,125.2373247,4028343.067,4035855.567,0.001870712,0.00175623,7.28E-07,7.28E-07,na,na
JVASP-8728,TiSnPt,216,F-43m,cubic,3D,0.8316,0.7107,-312.18105,375.59682,2114.953708,2463.121569,21701.402,17459.91133,1.006743145,1.221722499,0.874185549,0.874185549,-315.75888,369.51733
JVASP-8729,ScRu,221,Pm-3m,cubic,3D,0.0022,0.0052,9.1360243,9.0993698,927.8295228,922.682898,11116132,11143711,0.003423911,0.003397686,2.50E-07,2.50E-07,na,na
JVASP-8731,Y6CoBi2,189,P-62m,hexagonal,3D,0.0034,na,-0.114663667,-1.062739,383.8052373,369.3767876,727554.96,727800.2433,0.019927358,0.019028773,3.65E-06,3.65E-06,na,na
JVASP-8732,Ho6CoBi2,189,P-62m,hexagonal,3D,0.0029,0.0101,7.131968,6.164529667,332.1246086,302.3165059,821139.6233,824279.78,0.017892325,0.016222807,3.25E-06,3.25E-06,na,na
JVASP-8733,NaClO2,15,C2/c,monoclinic,3D,2.5541,3.9761,-271.0392767,417.42067,1662.760529,541.9978217,22784.51633,3152.104933,0.783777463,0.318414167,1.427958549,1.427958549,-237.63189,398.5145567
JVASP-8734,CuCl2,12,C2/m,monoclinic,1D,0.0013,0.0002,6.520065133,5.8079166,93.4488215,84.97893186,869833.0467,871805.09,0.003068238,0.00278384,6.93E-05,6.93E-05,na,na
JVASP-8735,Dy3InN,221,Pm-3m,cubic,3D,0.005,na,-18.97713,-19.336144,760.0714258,777.0915732,2110538.8,2078415.9,0.014607702,0.015176019,1.34E-06,1.34E-06,na,na
JVASP-8736,Er3InN,221,Pm-3m,cubic,3D,0.0563,0.0729,-19.922415,-20.410214,827.1857414,854.9613018,2084102.5,2052349.6,0.016226221,0.017033348,1.35E-06,1.35E-06,na,na
JVASP-8737,MnPd3,139,I4/mmm,tetragonal,3D,0.0027,na,-9.140440367,-9.144594967,343.0295423,342.0635797,2578977.967,2574116.333,0.005802348,0.005802874,1.12E-06,1.12E-06,-8.014020267,-7.8929786
JVASP-8738,BaCuBi,194,P6_3/mmc,hexagonal,3D,0.0005,na,-105.656945,45.46774767,1843.411194,277.5089783,128669.1877,124646.597,0.175594066,0.036908572,6.32E-05,6.32E-05,na,na
JVASP-8739,BaZnSn,194,P6_3/mmc,hexagonal,3D,0.0148,0.0391,-37.41395367,-37.5095962,450.9622118,404.06902,531502.9833,512413.3633,0.077529416,0.08684547,9.17E-06,9.17E-06,na,na
JVASP-8740,CeCd2Ag,225,Fm-3m,cubic,3D,0.0037,na,52.83347,52.287325,4072.460055,4032.368318,1458943.8,1474916.2,0.119612275,0.117745649,2.14E-06,2.14E-06,na,na
JVASP-8741,CeMg2Ag,225,Fm-3m,cubic,3D,0.0013,na,32.531107,31.43792,1112.162402,1044.747934,1050922.1,1057070.4,0.056845905,0.053014301,2.67E-06,2.67E-06,na,na
JVASP-8742,AlFe2Ni,225,Fm-3m,cubic,3D,0.0094,0.0229,-10.650121,-10.492169,280.6653556,272.0863248,2474455.933,2471588.467,0.004203512,0.004077183,1.20E-06,1.20E-06,na,na
JVASP-8743,TiAlFe2,225,Fm-3m,cubic,3D,0.0427,0.0624,33.935375,33.418167,2528.35962,2467.170279,2195500.5,2209194.1,0.053404666,0.05180267,1.23E-06,1.23E-06,na,na
JVASP-8744,U(SbO3)2,12,C2/m,monoclinic,2D,1.4218,1.5663,-487.04938,214.1658867,177.1059226,942.0116299,810.2771427,20378.636,0.105407715,0.448582183,283.6379475,283.6379475,-429.4747167,223.45739
JVASP-8745,Mg2In,189,P-62m,hexagonal,3D,0.0044,na,-3.643414367,-3.691239833,193.6191354,184.9585158,6691211.067,6678834.2,0.001409303,0.001365022,4.63E-07,4.63E-07,na,na
JVASP-8746,NdInRh,189,P-62m,hexagonal,3D,1.00E-04,na,-2.100364333,-2.685875567,509.4189296,541.4312756,2063084.1,2057219.567,0.007715098,0.008130612,1.52E-06,1.52E-06,na,na
JVASP-8747,YInRh,189,P-62m,hexagonal,3D,0.0023,na,-6.1742048,-5.840278133,980.5149568,1021.395325,1915397.133,1904918.167,0.014312952,0.015104646,1.73E-06,1.73E-06,na,na
JVASP-8748,KClO2,63,Cmcm,orthorhombic,3D,2.226,3.5739,-320.1135833,264.9043733,2346.907281,883.3414231,19633.9073,12370.70867,0.999900107,0.468514419,3.072573612,3.072573612,-374.04924,293.6592533
JVASP-8749,Sm2GeRh3,166,R-3m,trigonal,3D,0.0107,na,2.897562633,2.3329635,125.7359628,144.3093388,3647082.933,3647853.133,0.001648274,0.001755741,8.70E-07,8.70E-07,na,na
JVASP-8750,VSbRu,216,F-43m,cubic,3D,0.2103,0.259,-236.62858,317.35301,1991.309495,3084.643298,35563.48967,30628.07533,0.611085908,0.919555945,0.007721133,0.007721133,-192.66652,281.7433
JVASP-8751,Sb2Te4Pb,166,R-3m,trigonal,2D,0.02,na,-205.8203267,189.2162633,3381.97632,1881.427136,83418.17233,57364.69133,0.844031784,0.576521445,0.077178907,0.077178907,-191.4997767,208.0561933
JVASP-8753,Ni(HO)2,164,P-3m1,trigonal,2D,0.9366,0.0016,-379.7667,376.14101,1595.359595,1622.122537,11081.35857,11337.79707,0.86573916,0.860590239,1.948104972,1.948104972,-370.84882,394.0013333
JVASP-8754,Ta2I5,1,P1,triclinic,2D,0.046,0.0597,-6.054918833,9.601400167,50.47977942,25.97595347,36608.54567,37504.53367,0.012882623,0.008481075,0.000128834,0.000128834,na,na
JVASP-8755,LiS,225,Fm-3m,cubic,3D,0.0229,0.0383,17.136664,16.94085267,1900.43824,1864.346679,6471444,6496151.467,0.012518499,0.012228682,4.32E-07,4.32E-07,na,na
JVASP-8757,HBr,19,P2_12_12_1,orthorhombic,3D,4.6572,6.0823,-137.75704,305.5845433,948.8721465,1334.240647,48516.37533,16109.03327,0.319277593,0.664223881,0.43675304,0.43675304,-121.6970633,407.62076
JVASP-8759,CuI,160,R3m,trigonal,3D,1.2532,na,-56.019642,282.8677533,341.0761051,1665.128537,108631.12,20587.48033,0.082585018,0.813291103,0.176482554,0.176482554,-54.646516,279.4786267
JVASP-8760,CuCl4,8,Cm,monoclinic,0D,0.0023,na,53.73900367,51.4802525,5848.814607,5898.071043,2772656.567,2734337.583,0.248991204,0.237964354,2.24E-05,2.24E-05,na,na
JVASP-8761,Ag2S,1,P1,triclinic,3D,0.2777,1.0831,-82.42199467,256.1901067,560.9020439,1562.175698,75340.58867,21567.903,0.156666812,0.635958843,0.067482264,0.067482264,-131.2597033,302.8028333
JVASP-8762,CuBr,119,I-4m2,tetragonal,3D,0.5676,na,-62.18558233,356.56428,385.7412433,2247.751594,99752.93767,17679.03733,0.09767712,1.124472666,0.194346086,0.194346086,-58.77446,345.1271333
JVASP-8764,Hf4N3,139,I4/mmm,tetragonal,3D,0.0026,na,-0.73899869,-0.726793027,57.99878983,58.87782805,1858679.2,1856550.033,0.001133069,0.001149532,1.53E-06,1.53E-06,na,na
JVASP-8765,Rb3Sb,225,Fm-3m,cubic,3D,0.6063,1.398,-49.65391633,400.88908,293.4683517,2141.268914,119029.4033,13323.636,0.066403273,1.176078322,0.158080557,0.158080557,-45.727631,417.56567
JVASP-8766,Nd2O3,221,Pm-3m,cubic,3D,0.9162,1.4102,-196.72259,454.03332,1535.029806,7749.35604,39665.081,37591.544,0.633959537,3.745020192,0.670740798,0.670740798,-196.63266,452.57431
JVASP-8768,SF4,121,I-42m,tetragonal,0D,1.4985,1.8703,-454.2661967,462.0659667,629.3038853,689.013605,3104.9836,3408.190067,0.368950651,0.401458449,17.19226138,17.19226138,-460.4056167,503.0341867
JVASP-8769,AgI2,115,P-4m2,tetragonal,2D,0.0295,0.0074,36.95412367,36.474974,1890.713188,1863.808627,1319598,1338923.833,0.056523533,0.054756976,2.17E-06,2.17E-06,na,na
JVASP-8770,CuI4,8,Cm,monoclinic,0D,0.0067,0.2466,49.79068933,48.44798867,1526.042062,1460.212131,3314459.263,3299361.17,0.133561149,0.12032553,3.94E-05,3.94E-05,na,na
JVASP-8773,NaSbSe2,15,C2/c,monoclinic,3D,0.0084,na,-270.30111,209.9114233,4145.659519,1288.562086,53966.16267,28097.28933,1.549413296,0.541109478,0.600337138,0.600337138,-113.2198833,-9.5427795
JVASP-8774,LiYS2,141,I4_1/amd,tetragonal,3D,2.01,na,-186.7243,359.1282933,1495.191313,1450.181552,37854.903,11578.49457,0.586276161,0.786474537,0.725417354,0.725417354,-241.1419633,339.1246333
JVASP-8775,CeGaO3,221,Pm-3m,cubic,3D,0.0097,na,-109.38761,-110.31663,1003.88705,1012.153915,83897.416,83169.595,0.383295719,0.387842853,2.87E-05,2.87E-05,na,na
JVASP-8776,LiBiS2,74,Imma,orthorhombic,3D,0.9777,na,-58.35762467,233.4490033,1231.657146,1523.349203,246657.73,27679.93067,0.123531217,0.710744431,0.032889337,0.032889337,-199.6082867,151.2572
JVASP-8777,Ca2NF,141,I4_1/amd,tetragonal,3D,1.9579,3.1455,-251.2201133,369.49581,1885.413998,1498.768068,29476.50733,10000.02563,0.826729213,0.783175054,0.909485092,0.909485092,-107.04723,280.0975667
JVASP-8778,AgBiSe2,12,C2/m,monoclinic,3D,0.0009,na,5.547781433,5.6823312,71298.09706,92367.58798,2203318233,2224729300,0.001294927,0.001545102,1.35E-09,1.35E-09,-86.80877533,10.16681293
JVASP-8781,BiTeBr,156,P3m1,trigonal,2D,1.1307,1.8995,-89.86661433,272.15452,659.2723292,2110.978535,79821.10633,28180.524,0.159817798,0.917312581,0.303193851,0.303193851,-93.30943267,289.05849
JVASP-8782,Sr(RuO3)2,44,Imm2,orthorhombic,3D,0.0001,na,11.418248,11.18939,460.6932238,443.4208259,3532251,3540239.933,0.005618608,0.005397075,7.89E-07,7.89E-07,4.2203997,3.845582233
JVASP-8783,CrSbO4,65,Cmmm,orthorhombic,3D,0.0787,0.0018,-33.02736633,-15.16718163,238.268058,87.11016432,178592.7833,169021.0933,0.02830809,0.010386978,2.18E-05,2.18E-05,-30.93930767,-17.28330857
JVASP-8784,Sr(GaTe2)2,97,I422,tetragonal,3D,0.2999,0.9245,-65.694263,277.2125233,430.6331955,2306.924696,99701.715,31258.294,0.110233805,0.973990079,0.015737776,0.015737776,-64.923762,258.9428333
JVASP-8785,ErAgSe2,141,I4_1/amd,tetragonal,3D,0.3429,1.1454,-331.47731,263.5305467,1048.969044,2151.556731,8075.2553,27789.928,0.572867076,0.943187885,2.348303445,2.348303445,-99.61052067,198.39097
JVASP-8788,Ba(InTe2)2,97,I422,tetragonal,3D,1.0183,1.4918,-104.863211,299.9513533,715.6960164,1923.712797,65978.593,23032.30367,0.215887748,0.911044283,0.336368065,0.336368065,-113.91393,300.6486
JVASP-8789,TaO2F,131,P4_2/mmc,tetragonal,3D,2.1205,3.3068,-292.72765,430.8554367,2903.867728,2017.691172,44017.51643,11370.5046,1.10282529,1.066269488,2.896345187,2.896345187,-331.4108167,430.42545
JVASP-8790,Ba2NbO,225,Fm-3m,cubic,3D,0.0165,0.0071,25.957396,26.650717,546.095409,590.5529114,810487.4233,831459.3467,0.023423245,0.025560142,3.44E-06,3.44E-06,na,na
JVASP-8792,LiSbS2,15,C2/c,monoclinic,3D,0.0167,na,-180.0433033,101.507538,4745.595061,877.7121442,128183.1813,91823.99233,0.73027756,0.217409428,0.001002175,0.001002175,-62.84375505,45.59076867
JVASP-8793,K2NaAs,194,P6_3/mmc,hexagonal,3D,0.4198,1.704,-52.91655733,371.9278867,329.415009,1106.798349,113870.24,8004.364533,0.075938857,0.567208572,0.026783279,0.026783279,-48.19974767,263.5663367
JVASP-8794,MnO2,166,R-3m,trigonal,2D,0.0026,0.0031,-20.83993833,-20.83092767,348.1053706,360.1040018,1515754.263,1512814.62,0.012536026,0.012546963,1.75E-05,1.75E-05,-339.8848267,373.5775633
JVASP-8795,Zn(InSe2)2,121,I-42m,tetragonal,3D,0.8091,2.098,-140.3823767,394.8943767,924.8257069,1206.794835,46949.37567,7739.136333,0.317175067,0.694749468,0.35954395,0.35954395,-51.99785833,278.9430433
JVASP-8796,K(AsRh)2,139,I4/mmm,tetragonal,3D,0.0004,na,-18.1126756,-18.61000267,217.7026404,224.2016858,1865528.073,1849631.837,0.016550951,0.017438747,5.48E-06,5.48E-06,na,na
JVASP-8798,TiNbS4,12,C2/m,monoclinic,2D,0.0003,na,-15.01405033,-15.64438,697.2697791,744.0603326,2220293.647,2197094.353,0.011172016,0.012040119,3.06E-06,3.06E-06,na,na
JVASP-8799,CsTaN2,122,I-42d,tetragonal,3D,2.2557,na,-206.8977633,312.14799,1249.377439,2620.529407,29576.55367,26870.91833,0.529963001,1.242475957,0.613898967,0.613898967,-181.6825167,318.9115467
JVASP-8800,H4NCl,215,P-43m,cubic,3D,5.2881,7.0273,-101.1,504.86318,657.6216125,2123.622432,64338.92,8331.6287,0.216492778,1.197164038,0.382320611,0.382320611,-106.23677,509.08116
JVASP-8801,HoTaO4,115,P-4m2,tetragonal,3D,2.4981,3.7276,-315.3363767,366.1914367,3133.734778,1383.866199,30866.18656,10577.5273,1.287214347,0.721196181,26.80002396,26.80002396,-312.3809367,206.89603
JVASP-8802,H4IN,44,Imm2,orthorhombic,3D,3.8431,5.319,-93.63198367,410.45155,613.5312309,1346.275396,70024.82967,7983.548533,0.193332255,0.74550675,0.342767321,0.342767321,-96.20976967,416.2820867
JVASP-8803,AgPF6,225,Fm-3m,cubic,3D,3.0471,5.1689,-161.94044,465.44807,1053.340191,596.3454082,40165.94833,2752.678,0.429698461,0.353380219,0.784617307,0.784617307,-147.16808,472.50439
JVASP-8804,Ag3AuS2,166,R-3m,trigonal,2D,1.7019,2.1557,-135.78936,281.98976,905.0865555,2196.319273,49277.631,27009.836,0.337563816,0.947052403,0.57171428,0.57171428,-123.9804233,279.17062
JVASP-8805,Li2HN,44,Imm2,orthorhombic,3D,3.4629,3.9577,-216.0143033,375.3109833,2408.369719,2185.172467,51669.38733,15547.074,0.892351367,1.084641191,0.549600048,0.549600048,-184.0689933,359.30002
JVASP-8807,LiSmS2,141,I4_1/amd,tetragonal,3D,1.9238,1.6248,-177.6423233,410.9366767,1489.804291,2242.706727,43187.70633,13552.405,0.563235618,1.229928639,0.649427217,0.649427217,-244.5000133,352.10069
JVASP-8810,TiO2,141,I4_1/amd,tetragonal,3D,2.0237,2.4746,-233.1194633,454.2636567,1474.41519,1208.483904,22086.64173,5529.360533,0.684872973,0.692854359,6.226177652,6.226177652,-189.67154,388.24147
JVASP-8811,Ho2CdS4,119,I-4m2,tetragonal,3D,0.0258,1.7578,-204.5361867,323.15274,1619.894786,1262.014243,40375.036,12921.5266,0.675180058,0.656320676,0.724884055,0.724884055,-124.6585667,251.66063
JVASP-8812,KNO2,8,Cm,monoclinic,3D,2.5198,3.8576,-469.2315533,408.1874967,294.5058108,855.6188794,1339.8239,5276.9856,0.175905908,0.482793144,14.69229571,14.69229571,-432.7217033,459.74019
JVASP-8813,MgGeP2,122,I-42d,tetragonal,3D,1.4872,2.2192,-346.84635,365.0286033,1245.688498,833.6054147,10420.62737,6247.997633,0.690778176,0.48537371,1.709625713,1.709625713,-264.3440567,255.83041
JVASP-8814,CaHN,107,I4mm,tetragonal,3D,2.5034,3.7233,-120.2633433,345.16016,873.4284278,2588.519835,58794.55733,19667.823,0.270711303,1.177833631,0.446059791,0.446059791,-95.82056933,342.09669
JVASP-8815,CeOF,216,F-43m,cubic,3D,0.0044,na,-15.67897333,-15.776131,71.60543598,72.3816267,291280.0567,290822.05,0.00915127,0.009262149,9.47E-06,9.47E-06,na,na
JVASP-8816,Ag3AuS2,1,P1,triclinic,3D,1.2083,1.9218,-178.32962,251.5370467,1341.237517,1923.663848,43646.508,30854.139,0.538032942,0.832962359,0.927655308,0.927655308,-108.0638553,276.79915
JVASP-8817,NaBiSe2,15,C2/c,monoclinic,3D,0.7573,na,-166.6406133,292.9580733,3809.068157,1783.58262,99631.73667,23778.23633,0.925733882,0.815686232,0.740898279,0.740898279,-208.8531267,253.5306133
JVASP-8818,Sr2H5Rh,107,I4mm,tetragonal,3D,0.1536,0.9598,-258.1709833,365.0736533,1945.29535,1595.897165,29335.744,11236.868,0.802830736,0.855652718,0.711655802,0.711655802,-278.1154067,349.7422067
JVASP-8819,NbO2F,15,C2/c,monoclinic,3D,1.6408,2.2143,-312.0515233,413.88246,3819.05914,1451.668876,39271.41467,7388.053333,1.579721316,0.796621179,0.765265677,0.765265677,-315.3128,371.00637
JVASP-8821,BiTe3,160,R3m,trigonal,3D,0.0019,na,1.944364777,1.648588247,228.816992,229.5326227,6616294.6,6638874.333,0.000747694,0.000766965,5.91E-07,5.91E-07,na,na
JVASP-8823,CuCN,160,R3m,trigonal,1D,2.6328,2.5961,-239.195,385.2949833,2141.532264,1233.070984,37843.28633,8263.4061,0.737477631,0.68117872,1.205424734,1.205424734,-277.6688567,392.9361933
JVASP-8824,ZnCrF6,148,R-3,trigonal,3D,1.6559,0.0007,30.35557933,29.505648,72.13371878,69.86935397,68770.761,69034.971,0.026038855,0.025099237,4.09E-05,4.09E-05,28.57536867,26.782425
JVASP-8825,LiSmSe2,141,I4_1/amd,tetragonal,3D,1.5609,na,-311.32992,405.6395067,1551.824899,1540.150279,16187.313,9184.085767,0.807268716,0.87704886,1.763883364,1.763883364,-237.4365533,312.3303633
JVASP-8826,Na2CeO3,123,P4/mmm,tetragonal,3D,1.7426,na,-573.7364667,307.0751,164.188872,1793.389279,494.2696933,14904.96763,0.09764519,0.90530671,36.31107476,36.31107476,-487.84099,356.24765
JVASP-8827,Li3TaO4,139,I4/mmm,tetragonal,3D,1.57,2.9587,-212.11677,464.4993833,2388.030981,1254.672151,42018.65833,6206.427033,0.903632177,0.716300862,45.27813115,45.27813115,-187.5678567,468.8055
JVASP-20113,Nd2O3,206,Ia3,cubic,3D,3.8411,na,-180.87533,455.05799,957.5278788,501.4768153,29267.98033,2421.683433,0.439094224,0.297111754,0.580373901,0.580373901,-140.98289,457.78564
JVASP-20115,Ni3S4,227,Fd-3m,cubic,3D,0.0016,na,0.297915153,-0.142586377,0.164341819,0.037629013,1851667.067,1850830.967,3.72E-06,8.49E-07,1.47E-06,1.47E-06,-2.9571613,-3.2379884
JVASP-20116,Tb2O3,206,Ia3,cubic,3D,4.0303,na,-114.70391,416.3352,626.8107575,424.1354423,47640.90433,2446.911733,0.239858277,0.250550954,0.450169155,0.450169155,-120.75374,420.1427
JVASP-20117,Nb5Ga13,65,Cmmm,orthorhombic,3D,0.0006,na,18.68302837,18.60766047,685.751395,706.3077143,1140733.853,1156036.967,0.02301385,0.023258746,3.07E-06,3.07E-06,23.39503467,23.371079
JVASP-20120,Yb4As3,220,I-43d,cubic,3D,0.0275,na,-10.267615,-13.160804,79.2853446,129.5751951,752062.21,748095.4767,0.005479409,0.009042016,3.32E-06,3.32E-06,-10.449705,-13.482952
JVASP-20124,MgZn2,194,P6_3/mmc,hexagonal,3D,0.0018,na,-2.464707667,-1.9532992,73.37126028,65.80142051,7069817.367,7054531.367,0.000417185,0.000372649,4.03E-07,4.03E-07,-1.3642864,-0.5250057
JVASP-20125,V5S4,87,I4/m,tetragonal,3D,0.009,na,-16.12407607,-16.0266862,1078.869336,1092.624533,1081203.467,1072400.6,0.022855966,0.023338323,3.65E-06,3.65E-06,-33.264313,-33.07585367
JVASP-20127,UBe13,226,Fm-3c,cubic,3D,0.0007,na,36.13326833,36.699379,1078.199009,1120.179437,825818.1733,831706.6333,0.042721471,0.044294376,3.95E-06,3.95E-06,33.517967,33.927024
JVASP-20128,CF4,15,C2/c,monoclinic,0D,9.6434,na,-150.1365433,553.44703,894.997891,212.9666224,39703.95667,695.88646,0.361633853,0.12718429,0.654347839,0.654347839,-158.7933867,564.5507533
JVASP-20131,TiO,12,C2/m,monoclinic,3D,0.0042,na,-36.12441167,-36.612399,1208.509314,1226.675925,1082830.177,1067571.42,0.062874122,0.063488455,3.24E-06,3.24E-06,-32.646125,-33.09886467
JVASP-20134,MgF2,136,P4_2/mnm,tetragonal,3D,7.315,na,-163.9509267,357.48378,1127.067521,928.0721308,43037.475,7256.826933,0.450279604,0.513862782,0.834507809,0.834507809,-129.19872,350.5191433
JVASP-20136,Yb4Sb3,220,I-43d,cubic,3D,0.0105,na,-4.9692218,-8.560671733,19.09133119,56.47664924,773142.3233,770642.9933,0.001281031,0.003828789,3.22E-06,3.22E-06,-6.8350254,-10.608724
JVASP-20140,Si3Mo5,140,I4/mcm,tetragonal,3D,0.0002,na,-5.565929033,-5.902685933,106.6514153,109.4082362,2050869.433,2046260,0.002247741,0.002307685,1.35E-06,1.35E-06,-5.507228933,-5.865360867
JVASP-20141,Te2Rh3,63,Cmcm,orthorhombic,3D,0.0017,na,-17.61473117,-17.21063023,1013.179924,999.1959719,1981764.167,1972547.1,0.024446335,0.024050336,1.69E-06,1.69E-06,-24.22061603,-24.03094337
JVASP-20142,Sb2Pd,205,Pa3,cubic,3D,0.0058,na,20.940516,21.62389,799.276909,873.7211229,1822730.7,1868552,0.016168258,0.017777019,1.55E-06,1.55E-06,17.876438,18.914711
JVASP-20143,P3Rh,204,Im3,cubic,3D,0.0491,na,-32.968622,9.851669367,190.0433113,16.79746034,174844.1067,173070.8667,0.022078671,0.002199975,1.96E-05,1.96E-05,-27.37238,2.229315
JVASP-20148,Rh3Se8,148,R-3,trigonal,3D,0.0042,na,-40.14349233,-43.919378,1174.020192,1293.143844,1132609.1,1105320.533,0.124799087,0.14026444,3.91E-06,3.91E-06,na,na
JVASP-20150,Lu2O3,206,Ia3,cubic,3D,4.2239,na,-124.76509,411.3259667,849.0903326,717.1444158,54546.60533,4238.716467,0.308220523,0.421021231,0.54910623,0.54910623,-110.93426,406.02821
JVASP-20154,Nd5Ge3,193,P6_3/mcm,hexagonal,3D,0.0238,na,10.92073093,11.38094657,86.68227586,91.50691247,578252.8867,580967.6067,0.005937687,0.006247758,5.16E-06,5.16E-06,-2.844058567,-2.1448374
JVASP-20156,Be12Mo,139,I4/mmm,tetragonal,3D,0.0004,na,-0.452820873,-2.5779019,4551.604462,6481.330008,776390153.3,776176840,0.000306229,0.000475339,3.86E-09,3.86E-09,4.668262067,5.773667033
JVASP-20157,Zr2Al3,43,Fdd2,orthorhombic,3D,0.0235,na,9.361635467,9.010204267,277.1214015,266.7546335,1697308.933,1703340.433,0.009797205,0.009517994,1.96E-06,1.96E-06,6.724453633,6.5394191
JVASP-20158,Pr4Sb3,220,I-43d,cubic,3D,0.016,na,2.609536433,1.094439467,5.551697721,0.976956258,815265.5333,815627.0633,0.000322704,5.67E-05,3.23E-06,3.23E-06,2.1872058,0.54483162