JID,Composition,Spg.numb.,Spg.symb.,Cryst.,Dimensionality,OPT SCF gap, MBJ gap,n-Seebeck,p-Seebeck,n-powerfact,p-powerfact,n-cond,p-cond,n-ZT,p-ZT,Avg.elec.mass,Avg.hole mass,n-mp-Seeb,p-mp-Seeb
JVASP-9072,Ca3N2,167,R-3c,trigonal,3D,1.0417,2.2948,-94.71633533,395.9130867,620.6789754,1335.244022,69191.26933,8562.885,0.194051802,0.761808474,0.377773923,0.377773923,-79.47569167,422.12218
JVASP-9073,SrAs,189,P-62m,hexagonal,3D,0.0391,na,-94.52854333,151.557038,2576.386456,890.2182798,111269.6713,43955.122,0.282456864,0.321680173,0.000838016,0.000838016,-89.008914,139.7430967
JVASP-9074,ErNi3,166,R-3m,trigonal,3D,0.0087,na,-18.63860787,-18.3206383,492.7924083,469.7121081,1149875.653,1146837.88,0.017100486,0.016279948,2.90E-06,2.90E-06,na,na
JVASP-9075,Sr2Si,62,Pnma,orthorhombic,3D,0.1465,0.6129,-119.2430933,258.6345733,863.0329849,1367.726101,67033.099,20767.51893,0.255277096,0.660454089,0.176853813,0.176853813,-123.5692633,266.439
JVASP-9076,Sr5Al9,166,R-3m,trigonal,3D,0.0084,na,22.38513,22.36061467,594.2149054,586.6003217,1759081.033,1781914.603,0.020816537,0.021972396,2.81E-06,2.81E-06,na,na
JVASP-9077,Li2S,62,Pnma,orthorhombic,3D,4.1034,4.3663,-210.6213867,330.8231567,2045.782947,2094.2266,48077.711,19021.33073,0.751063084,1.015972089,0.669985442,0.669985442,-298.6653733,322.1888067
JVASP-9078,ThS2,62,Pnma,orthorhombic,3D,1.0755,na,-160.5713067,255.4672933,977.9867088,1742.952581,38578.01133,25860.309,0.407919438,0.774809931,0.781184262,0.781184262,-177.0589267,292.33565
JVASP-9079,Ti3O5,12,C2/m,monoclinic,3D,0.0003,na,-25.9038908,-26.3643283,798.393005,794.7380642,1222753.19,1219825.743,0.046755797,0.047227655,5.28E-06,5.28E-06,na,na
JVASP-9080,HfTe5,63,Cmcm,orthorhombic,2D,0.003,na,-125.9894417,15.41943567,4194.718154,1226.369144,268779.4208,255358.6798,0.233943867,0.061925968,0.000306962,0.000306962,-205.19656,93.047284
JVASP-9081,Sb3Ir,204,Im3,cubic,3D,0.146,na,-106.51931,71.784117,980.2310294,520.2033491,86391.64767,100952.3467,0.266356615,0.10562241,0.000459224,0.000459224,-121.60062,73.294299
JVASP-9082,Ga2O3,167,R-3c,trigonal,3D,2.6942,4.4784,-68.62707567,427.4058467,460.1337902,1701.860661,97743.167,9203.683633,0.118856393,0.935763527,0.231823999,0.231823999,-63.08265133,432.0181833
JVASP-9083,Sb2Ir,14,P2_1/c,monoclinic,3D,0.0156,0.5968,-322.7936733,217.80305,4152.348453,3484.68565,40520.831,76637.95967,1.716942284,1.07110602,0.1278987,0.1278987,-330.04576,212.3944667
JVASP-9085,KS,189,P-62m,hexagonal,3D,1.4777,na,-184.25226,340.0053033,2343.613047,1155.747126,46941.99533,9063.035633,0.562975939,0.609256297,1.404898794,1.404898794,-181.4600733,343.3770067
JVASP-9087,CdSb,61,Pbca,orthorhombic,3D,0.0015,na,-136.0984967,91.52157467,3048.307335,665.15901,166647.6267,87471.703,0.551672083,0.133469136,0.000129245,0.000129245,na,na
JVASP-9088,Ga2Se3,9,Cc,monoclinic,3D,0.9932,na,-90.04137633,266.3580533,851.0647746,1477.061493,97901.63867,21048.22523,0.17879775,0.638572815,0.16513558,0.16513558,-87.04128667,283.3585367
JVASP-9089,CaP,189,P-62m,hexagonal,3D,0.0451,1.0523,-218.95974,183.8091067,3719.545207,1511.177342,73871.27977,44683.06133,0.695173893,0.581338563,0.286989552,0.286989552,-229.9465933,181.9863033
JVASP-9090,B6O,166,R-3m,trigonal,3D,2.2138,2.4022,-103.4952233,250.9176767,767.0661681,3030.248947,71987.331,47728.43333,0.240079394,1.151845801,0.442980383,0.442980383,-92.51055733,254.8776733
JVASP-9091,Th3P4,220,I-43d,cubic,3D,0.0913,na,-123.8888,358.79496,1003.560395,3584.208697,65385.19467,27842.01233,0.327152062,1.515131121,0.016501408,0.016501408,-127.7117,344.4785
JVASP-9092,Ge,96,P4_32_12,tetragonal,3D,0.1508,na,-110.8893733,279.8119467,1854.381995,3688.61488,149782.51,46821.34767,0.337524988,1.284724579,0.004704969,0.004704969,-169.9155033,268.6580667
JVASP-9093,Rb2Te,62,Pnma,orthorhombic,3D,1.8818,3.1412,-73.15560133,420.8861533,483.2782712,393.5008505,90957.97033,2245.843473,0.132853491,0.231922382,0.277424411,0.277424411,-77.60851267,427.6774533
JVASP-9094,TiO2,60,Pbcn,orthorhombic,3D,2.5666,2.8447,-468.6323833,358.8511867,930.7407112,1348.657919,4198.221633,10037.9035,0.540941093,0.717371981,4.051750299,4.051750299,-467.2510767,381.3081433
JVASP-9095,Co9S8,225,Fm-3m,cubic,3D,0.0256,na,-9.533638233,-8.673295033,75.63428908,62.20963898,832149.57,826969.4033,0.003238113,0.002657715,3.53E-06,3.53E-06,na,na
JVASP-9096,KSb,14,P2_1/c,monoclinic,3D,0.0419,na,-178.6005667,316.96002,1259.025446,1209.277557,38294.34333,11432.09973,0.525594729,0.63065655,0.57542492,0.57542492,-162.4132067,308.8210533
JVASP-9097,KTe,189,P-62m,hexagonal,3D,0.3115,na,40.62276333,127.5973467,7745.391939,906.4226094,138503.4672,45468.24667,0.67733764,0.276603176,0.00264644,0.00264644,-64.18484567,198.5932137
JVASP-9098,Yb2Ge,62,Pnma,orthorhombic,3D,0.0082,na,-112.0714093,115.6813393,1062.68556,861.5462793,113201.9207,57145.29233,0.236582525,0.238012163,0.000352076,0.000352076,-119.1411633,161.1574333
JVASP-9099,Sb2O5,15,C2/c,monoclinic,3D,0.4507,na,-70.381285,484.27217,431.6052497,692.1219422,86118.747,3125.742633,0.118548855,0.403454268,0.229607438,0.229607438,na,na
JVASP-9100,BaN6,11,P2_1/m,monoclinic,3D,3.8288,4.6803,-213.3250167,441.57619,979.5344425,364.9410031,20277.13653,2262.491643,0.459921046,0.214565972,3.715978354,3.715978354,-274.5502167,468.7222467
JVASP-9101,KO3,140,I4/mcm,tetragonal,3D,0.0089,na,-245.70511,294.7124767,440.2917244,286.6036521,7234.499733,3084.239667,0.25134952,0.167581537,2.062805151,2.062805151,-259.0047633,310.7133067
JVASP-9102,Sm2O3,12,C2/m,monoclinic,3D,3.8301,5.2151,-247.7373433,442.98672,1074.789036,498.4836332,17989.99193,2661.4414,0.522869762,0.294644794,1.356849317,1.356849317,-226.3750633,443.8125033
JVASP-9103,NO2,14,P2_1/c,monoclinic,2D,2.5215,3.6245,-465.7651133,339.26237,814.3515342,1935.410883,3687.231433,14567.34047,0.471718865,0.754618484,13.58656801,13.58656801,-463.5369967,370.3999
JVASP-9104,RbO3,14,P2_1/c,monoclinic,3D,0.7674,na,-358.09715,364.0588133,253.9871813,260.8814406,1944.4054,1936.85536,0.150398485,0.154171426,11.50473107,11.50473107,-370.87528,387.25126
JVASP-9105,SbO2,15,C2/c,monoclinic,3D,2.3402,3.1847,-246.1440433,407.99994,1645.314859,1077.371435,27238.08367,6453.917933,0.680586298,0.615871362,2.049512786,2.049512786,-224.5056567,362.1925267
JVASP-9106,KGa3,119,I-4m2,tetragonal,3D,0.0001,na,-196.69893,241.9931267,3284.612221,6383.72905,84610.11467,100729.8377,0.600649979,1.166082897,0.001493554,0.001493554,-235.4529,242.41294
JVASP-9107,Te2Ru,205,Pa3,cubic,3D,0.09,na,-79.001027,47.384228,461.4109176,59.99052772,73930.287,26718.684,0.131889663,0.013356842,0.000440556,0.000440556,-79.023284,80.781706
JVASP-9108,RuSe2,205,Pa3,cubic,3D,0.2116,0.6432,-88.719747,339.54162,527.7348578,1120.261858,67046.358,9717.0294,0.168646741,0.419599376,0.00834239,0.00834239,-94.637365,426.78202
JVASP-9109,CoP3,204,Im3,cubic,3D,0.013,na,-42.565301,33.432116,182.3975467,130.7908859,100671.74,117017.2133,0.026827557,0.024495813,4.03E-05,4.03E-05,na,na
JVASP-9110,C3N4,176,P6_3/m,hexagonal,3D,3.5875,4.2699,-260.5443767,350.8565733,2671.113421,2214.350015,39122.55933,17262.80703,1.104436881,0.953671733,0.669252415,0.669252415,-296.8012867,355.5193433
JVASP-9111,RuS2,205,Pa3,cubic,3D,0.318,1.112,-98.70487,488.3612,628.7605459,1588.504869,64536.903,6660.491,0.208067026,0.900009065,0.370455538,0.370455538,-101.76865,487.47919
JVASP-9112,HoNi3,166,R-3m,trigonal,3D,0.0041,na,-19.65839923,-19.26027457,546.6758779,518.4790041,1096543.58,1093455.243,0.019014434,0.018017222,3.06E-06,3.06E-06,na,na
JVASP-9113,Si3N4,227,Fd-3m,cubic,3D,3.5585,na,-179.56318,367.28228,2101.83126,4811.966214,65187.34167,35671.60233,0.714440583,2.183920706,0.437823276,0.437823276,-177.99003,400.22846
JVASP-9114,Rb2P3,69,Fmmm,orthorhombic,3D,0.74,1.2821,-193.2647167,179.8163267,878.5583156,932.3989792,24600.39533,27946.27267,0.416842628,0.411644681,0.987874483,0.987874483,-192.8788633,204.4533033
JVASP-9115,SrN6,70,Fddd,orthorhombic,3D,3.7085,4.661,-175.0671367,449.4145367,987.2240375,695.6878829,27895.72567,3534.9604,0.411837423,0.404329945,0.850469638,0.850469638,-213.6016767,463.5434367
JVASP-9116,Be2Fe,194,P6_3/mmc,hexagonal,3D,0.001,na,-6.528210017,-6.556901523,211.294468,211.4654145,2993940.767,2987302.467,0.002774675,0.002782482,9.39E-07,9.39E-07,na,na
JVASP-9117,FeS2,205,Pa3,cubic,3D,0.3022,0.4701,-105.5677,462.44226,579.771275,676.1092385,52022.902,3161.563,0.212206129,0.348644176,0.092206305,0.092206305,-107.16036,504.51156
JVASP-9118,CdO2,205,Pa3,cubic,3D,1.4817,3.4049,-326.75201,375.53814,2205.081595,2498.401613,20653.237,17715.53,1.130356185,1.20062595,1.397551328,1.397551328,-356.509,353.51318
JVASP-9119,Na2O2,189,P-62m,hexagonal,3D,1.937,4.0649,-195.0902267,404.5898767,1337.845332,1171.455895,32717,6965.409367,0.500387327,0.649894193,1.159093644,1.159093644,-182.2130867,415.3026333
JVASP-9120,ScSn2,141,I4_1/amd,tetragonal,3D,0.0018,na,13.257638,12.70693067,488.4889323,453.6200528,3106194.2,3128305.333,0.007467096,0.006814543,1.12E-06,1.12E-06,na,na
JVASP-9121,NaSi,15,C2/c,monoclinic,3D,1.2144,na,-252.8841633,306.5152333,3665.935607,2425.968315,55958.10033,30295.30493,1.306404125,0.937411169,0.494669412,0.494669412,na,na
JVASP-9122,KC,142,I4_1/acd,tetragonal,3D,3.242,5.5027,-244.7999833,418.5431233,1741.987628,425.2301788,26477.57567,2414.167567,0.778602916,0.252618178,1.043067729,1.043067729,-286.38987,454.6865633
JVASP-9123,Tb2O3,12,C2/m,monoclinic,3D,4.0305,5.5037,-220.86389,429.6694433,933.0611496,662.201911,19277.53267,3680.3283,0.448938771,0.387832569,1.113366387,1.113366387,-215.7062733,431.6067667
JVASP-9124,Er2O3,12,C2/m,monoclinic,3D,4.2054,5.7629,-206.9579933,409.2372033,889.2902893,835.1260392,21080.188,5056.270667,0.424985829,0.48009903,0.994962619,0.994962619,-213.22305,415.94683
JVASP-9125,PbF2,62,Pnma,orthorhombic,3D,4.4413,5.5518,-270.8532167,349.95097,2190.648319,1205.50725,28344.016,9451.4736,0.93781441,0.657543596,0.757737606,0.757737606,-323.85931,367.05795
JVASP-9126,As2Pt,205,Pa3,cubic,3D,0.1751,na,-117.61609,178.63972,2266.067965,4969.6031,163809.64,155727.62,0.344381051,0.786160858,0.000171595,0.000171595,-120.79415,183.74261
JVASP-9127,Ca2Si,62,Pnma,orthorhombic,3D,0.0892,na,-162.2996233,185.5715267,1553.754235,1082.165699,68552.381,36904.48733,0.477930027,0.441843084,0.061093371,0.061093371,-172.5559267,199.4393533
JVASP-9128,Sr2Ge,62,Pnma,orthorhombic,3D,0.0257,na,-133.13351,259.6278933,1024.686508,1697.79416,68514.53133,27607.43367,0.291304511,0.794444403,0.284776893,0.284776893,-135.0040567,268.25616
JVASP-9129,TbFe3,166,R-3m,trigonal,3D,0.0006,na,-2.4083891,-2.2625327,65.15541767,63.46275896,1227730.003,1226434.013,0.001942643,0.001912524,2.65E-06,2.65E-06,na,na
JVASP-9130,MgO2,205,Pa3,cubic,3D,3.931,5.4065,-470.24109,424.29302,1704.068157,1046.817833,7706.2982,5814.861,0.972100194,0.59535708,2.502704205,2.502704205,-471.82156,448.35287
JVASP-9131,MgTe2,205,Pa3,cubic,3D,1.1002,1.7275,-232.43381,279.62784,893.9620371,3564.105048,16547.046,45581.612,0.439061815,1.543614763,0.598251523,0.598251523,-281.4904,285.58662
JVASP-9132,V4As3,12,C2/m,monoclinic,3D,0.0003,na,-32.72840533,-33.32483733,831.0973432,851.4443874,785430.45,779331.2733,0.04693003,0.048160751,3.60E-06,3.60E-06,na,na
JVASP-9133,TlF3,62,Pnma,orthorhombic,3D,1.2414,3.0369,-92.878887,501.53309,648.9430485,473.9019129,76704.46933,2203.488903,0.196888422,0.281081936,0.371577807,0.371577807,-89.27584967,505.5717767
JVASP-9134,GeO2,205,Pa3,cubic,3D,0.9189,na,-56.256431,477.12052,355.2240972,1576.458515,112242.69,6925.1049,0.083237321,0.895834772,0.167942882,0.167942882,-51.181071,479.32355
JVASP-9135,Sb2Rh,14,P2_1/c,monoclinic,3D,0.0117,0.0166,-83.50687467,41.70969533,1182.911459,369.9041348,157323.9833,154243.47,0.105408088,0.032154686,4.39E-05,4.39E-05,-78.53109233,61.549509
JVASP-9136,CoAs2,14,P2_1/c,monoclinic,3D,0.0039,na,-182.9076967,84.74476167,2068.402867,491.7387224,61507.59733,58692.91833,0.325195468,0.076650289,0.000365217,0.000365217,-206.3067967,128.0403867
JVASP-9137,TeO2,96,P4_32_12,tetragonal,3D,3.0414,4.6383,-306.2268,451.6216733,1894.351423,814.8971734,20215.17767,3959.324633,0.973192972,0.474036899,1.031538649,1.031538649,-306.96126,429.78191
JVASP-9139,NO2,204,Im3,cubic,3D,2.7844,na,-436.91724,282.82398,154.0188866,861.5502156,806.81807,10770.80433,0.092320334,0.469109292,13.29473475,13.29473475,-434.99587,399.14906
JVASP-9140,Lu2S3,167,R-3c,trigonal,3D,2.6097,3.4601,-349.1542033,296.2533033,2892.165897,1612.716206,23531.423,18413.35033,1.439114025,0.812366728,1.435058811,1.435058811,-354.6759567,312.2460733
JVASP-9141,C3N4,220,I-43d,cubic,3D,3.1909,3.9561,-215.7302067,484.04437,3479.199217,4987.143323,74757.949,21285.38467,1.129958986,2.599997565,0.356510885,0.356510885,-265.57734,491.64691
JVASP-9142,In2Si2O7,12,C2/m,monoclinic,3D,2.9593,4.6576,-105.2894633,488.1409067,699.7330056,808.0372906,63094.94633,3756.860767,0.232394662,0.472346059,0.405165172,0.405165172,-96.38929033,502.1327433
JVASP-9144,Ca(AuO2)2,88,I4_1/a,tetragonal,3D,1.6907,na,-305.9490367,458.36855,1006.880736,750.3790453,10939.30917,3566.794067,0.552268599,0.439454083,2.551267752,2.551267752,-321.3227767,472.9241567
JVASP-9145,Al2ZnO4,227,Fd-3m,cubic,3D,4.2546,na,-96.83349233,419.56455,609.4305081,2282.26467,64993.96033,12964.878,0.197699532,1.236993492,0.342822804,0.342822804,-93.802902,414.04332
JVASP-9146,Ca2Ge,62,Pnma,orthorhombic,3D,0.0191,na,-177.61446,203.4762967,1772.265017,1286.372853,64133.22233,39801.84067,0.534226415,0.510085192,0.196358585,0.196358585,-188.7318133,203.7159767
JVASP-9147,HfO2,14,P2_1/c,monoclinic,3D,4.1231,5.6636,-238.3601733,362.4556833,1174.065467,1370.279651,20830.1205,10923.7119,0.540425771,0.72676513,1.619090885,1.619090885,-294.25979,363.37886
JVASP-9148,Nd2Co17,166,R-3m,trigonal,3D,0.0021,na,-10.1484334,-9.941444067,34.68448424,33.08840302,320584.6533,320097.6833,0.003385847,0.003240344,9.39E-06,9.39E-06,na,na
JVASP-9149,Th3As4,220,I-43d,cubic,3D,0.0851,0.5813,-127.5743,355.2701,997.1363719,3670.270586,61267.21933,29079.087,0.33362453,1.61394339,0.023253651,0.023253651,-131.08194,347.83897
JVASP-9150,MgP4,14,P2_1/c,monoclinic,3D,0.1174,1.0219,-175.3565733,244.6658133,1744.966212,2741.337452,51074.07333,46603.07,0.571017243,1.012786042,0.565004213,0.565004213,-184.34598,251.64865
JVASP-9151,CdP2,33,Pna2_1,orthorhombic,3D,1.4191,na,-264.00977,288.9747767,2255.369771,2399.468503,32096.926,30254.56567,0.987579074,1.016861429,0.826946929,0.826946929,-254.45464,288.9804567
JVASP-9152,NaS,189,P-62m,hexagonal,3D,1.0561,2.3546,-164.8585533,306.0529867,3025.527187,1899.502874,71865.4107,19769.08633,0.497084535,0.892920602,1.331138527,1.331138527,-196.03514,315.5705833
JVASP-9153,IrN2,14,P2_1/c,monoclinic,3D,0.0452,na,-265.2166433,256.0520733,1772.149356,3352.411244,16697.83997,50286.688,0.715755383,1.041441565,0.02795793,0.02795793,-253.0574033,262.91943
JVASP-9154,TiO2,14,P2_1/c,monoclinic,3D,2.2329,2.5985,-400.19506,377.7331333,1195.717997,1787.513795,7914.8603,12724.80367,0.651452888,0.957478671,3.851017876,3.851017876,-445.34485,371.8808267
JVASP-9155,Ge3N4,227,Fd-3m,cubic,3D,1.9982,na,-165.35896,460.68114,1856.772974,2372.536413,67905.24833,11179.23333,0.567847519,1.327427241,0.476263546,0.476263546,-150.0886,447.99819
JVASP-9156,Te3As2,12,C2/m,monoclinic,3D,0.0029,na,-202.1169567,314.67343,4546.695946,4223.519364,114678.7467,44990.39133,1.092403117,1.679807867,0.212102254,0.212102254,-188.3830733,316.9524867
JVASP-9157,MnP4,2,P-1,triclinic,3D,0.0225,0.4116,-310.93538,331.9685767,2213.064718,1894.816533,23591.18433,17545.67467,0.980211244,0.899139135,0.193100907,0.193100907,-351.00597,331.3675467
JVASP-9158,As4S5,11,P2_1/m,monoclinic,0D,1.5908,2.4695,-223.5435467,324.8060333,1720.467146,1063.248413,37801.21603,10064.34657,0.565436347,0.593074415,1.558578837,1.558578837,-208.6038433,383.9146367
JVASP-9159,Ga2S3,9,Cc,monoclinic,3D,1.6765,3.2436,-80.36000633,296.3816633,493.0078773,1440.964722,75905.25533,15142.09937,0.143139307,0.664351332,0.283562673,0.283562673,-80.44186767,302.2573
JVASP-9160,Th3Sb4,220,I-43d,cubic,3D,0.0426,na,-72.586762,176.44511,428.1923082,2365.46848,81268.83133,75979.759,0.08454834,0.366973168,0.000176965,0.000176965,-62.135779,144.58449
JVASP-9161,TeO2,92,P4_12_12,tetragonal,3D,3.0409,4.6377,-306.01595,451.7398567,1889.205874,814.9907135,20187.46967,3958.380967,0.9703647,0.474146749,1.036435591,1.036435591,-307.03456,430.02942
JVASP-9162,C3N4,227,Fd-3m,cubic,3D,1.1208,1.4387,-266.10629,385.96534,2630.640203,4730.880924,37149.346,31757.434,1.126825154,2.206081736,0.832011063,0.832011063,-271.838,401.11679
JVASP-9163,B13C2,166,R-3m,trigonal,3D,3.0964,0.0216,38.40989033,37.431802,2453.744886,2360.619666,1794383.067,1820840.7,0.065984061,0.062574433,1.76E-06,1.76E-06,na,na
JVASP-9164,Nb2O5,15,C2/c,monoclinic,3D,2.5662,3.043,-367.2456467,368.9694233,1554.315598,831.5332914,11699.94167,6280.278567,0.811072879,0.466452299,2.511425447,2.511425447,-329.6902067,357.8308267
JVASP-9166,B6As,166,R-3m,trigonal,3D,2.7386,na,-209.46059,341.01811,3338.754075,3197.506202,77044.17667,27609.747,1.041206861,1.347624692,0.485720741,0.485720741,-193.8105833,379.79182
JVASP-9169,CaN6,70,Fddd,orthorhombic,3D,3.5063,na,-201.2881433,461.9341167,1055.27193,979.4795448,23444.81233,4892.001333,0.457056081,0.562178742,0.835089153,0.835089153,-209.41966,453.69018
JVASP-9170,P4S5,4,P2_1,monoclinic,0D,2.2307,3.002,-289.2454267,377.88537,1559.768655,451.8309327,20058.43797,3218.874533,0.781900113,0.267506558,1.73715279,1.73715279,-292.5276633,367.66416
JVASP-9171,SnO2,205,Pa3,cubic,3D,0.5796,na,-49.636194,481.20937,303.9643133,1486.38066,123374.57,6418.919,0.066952991,0.856154506,0.148480369,0.148480369,-46.380844,483.95029
JVASP-9172,KAs,19,P2_12_12_1,orthorhombic,3D,0.7616,1.6492,-143.18794,226.8971667,992.334687,1174.240112,39096.967,18075.76673,0.334227634,0.502811297,0.755701499,0.755701499,-143.0278667,228.3533267
JVASP-9173,P2Pt,205,Pa3,cubic,3D,1.0239,na,-292.25665,214.57358,4023.011797,5927.378945,47100.173,128739.02,1.353072495,1.464658052,0.245653062,0.245653062,-303.34649,236.34798
JVASP-9174,HfO2,62,Pnma,orthorhombic,3D,3.4783,4.8454,-205.9002233,373.0784067,1235.246696,1933.226098,29423.729,13971.42367,0.545164749,1.01634811,1.210365842,1.210365842,-202.6872933,396.7502167
JVASP-9175,ZnSb,61,Pbca,orthorhombic,3D,0.0125,na,-143.3682233,106.5987777,3389.270534,885.8483977,166628.0133,89473.839,0.613403742,0.207969397,0.000264244,0.000264244,-163.7816133,108.389274
JVASP-9176,Ga2O3,12,C2/m,monoclinic,3D,2.2673,na,-73.46528,439.8785267,474.5544857,1129.868708,88097.64733,5789.5382,0.12805317,0.651184889,0.320859542,0.320859542,-67.059015,442.1202433
JVASP-9177,CuP2,14,P2_1/c,monoclinic,2D,0.9407,na,-251.1720467,278.3217967,1809.259432,3653.367315,29250.863,46584.012,0.760810564,1.484581049,0.701815929,0.701815929,-235.2058767,286.4092933
JVASP-9178,ZrO2,62,Pnma,orthorhombic,3D,2.9717,3.5568,-234.6024433,369.61518,1325.692929,1938.080954,24429.65133,14281.71733,0.616898478,1.015490675,1.584273288,1.584273288,-228.8356067,400.1428267
JVASP-9179,Sr2Sn,62,Pnma,orthorhombic,3D,0.0431,na,-160.1520033,180.9970333,1568.102676,956.1449684,70486.914,34716.67367,0.47736807,0.387992895,0.025253131,0.025253131,-165.6730833,172.0809133
JVASP-9180,Si3N4,176,P6_3/m,hexagonal,3D,4.4606,5.62,-170.67686,289.5508533,1766.278004,1579.612275,51504.80067,19321.381,0.435347973,0.780608991,1.016612791,1.016612791,-193.6928267,278.4695033
JVASP-9181,BaV4O8,162,P-31m,trigonal,3D,0.0507,na,-8.550079067,-9.1496271,24.10604748,26.97536842,316956.3867,315380.6767,0.002734232,0.00307386,8.89E-06,8.89E-06,na,na
JVASP-9182,BaMn4O8,162,P-31m,trigonal,3D,0.0064,na,-58.94679467,-51.84020267,456.1029551,277.1304517,262197.563,256112.6307,0.079880995,0.067398178,3.32E-05,3.32E-05,na,na
JVASP-9183,Ba2YMn3O8,123,P4/mmm,tetragonal,3D,0.0048,na,3.420807333,4.277416,142.6601784,152.5285575,1021330.46,1018420.713,0.008848698,0.010045582,1.18E-05,1.18E-05,na,na
JVASP-9184,Ba2YCr3O8,123,P4/mmm,tetragonal,3D,0.001,na,5.247841333,5.140433333,519.6209241,530.3344522,377597.6233,379894.19,0.05068467,0.051530376,8.28E-06,8.28E-06,na,na