JID,Composition,Spg.numb.,Spg.symb.,Cryst.,Dimensionality,OPT SCF gap, MBJ gap,n-Seebeck,p-Seebeck,n-powerfact,p-powerfact,n-cond,p-cond,n-ZT,p-ZT,Avg.elec.mass,Avg.hole mass,n-mp-Seeb,p-mp-Seeb
JVASP-21422,Ba2CaOsO6,225,Fm-3m,cubic,3D,0.0043,na,7.4694238,5.047395,26.84525889,12.30616732,481164.2967,483045.71,0.002632888,0.001213486,4.92E-06,4.92E-06,12.143881,9.8779057
JVASP-21436,KLiSO4,159,P31c,trigonal,3D,5.6124,na,-128.52018,416.1071533,854.2368447,780.0150678,52938.04067,4603.943933,0.307995356,0.450183143,0.560148371,0.560148371,-145.10913,435.0674
JVASP-21439,Cu2Hg2SF6,227,Fd-3m,cubic,3D,0.0403,na,24.591023,22.330076,107.9534561,90.86314182,178518.5533,182224.7433,0.019250501,0.01638352,1.38E-05,1.38E-05,25.222612,24.00267
JVASP-21444,Be3Zn4Si3SO12,218,P-43n,cubic,3D,4.1547,na,-139.60197,559.85009,1101.201258,208.9596018,56504.574,666.68215,0.400595324,0.124638959,0.659926852,0.659926852,-103.68528,546.09208
JVASP-21446,KBe2BO3F2,155,R32,trigonal,3D,6.5417,na,-126.3920667,453.67655,845.6093387,857.3152798,52949.63833,4555.4741,0.308912531,0.493008259,0.569962657,0.569962657,-142.6384733,436.2718433
JVASP-21450,Sm(BC)2,127,P4/mbm,tetragonal,3D,0.0035,na,-9.531827733,-9.852785267,610.9045805,650.8656921,4863661.467,4825441.967,0.005033086,0.005430123,5.78E-07,5.78E-07,-9.567002867,-9.816992133
JVASP-21451,Sr(BIr)2,70,Fddd,orthorhombic,3D,0.003,na,32.26549667,32.11087533,2536.604576,2670.036011,1117324.393,1155972.473,0.099662117,0.101871325,2.80E-06,2.80E-06,34.450108,34.23671967
JVASP-21452,YbRbF3,221,Pm-3m,cubic,3D,6.9391,na,-119.80915,521.64401,795.4029137,3048.37209,55412.431,11202.618,0.282775983,1.712373709,0.475794646,0.475794646,-120.62758,543.7381
JVASP-21453,KRb2YF6,14,P2_1/c,monoclinic,3D,6.8018,na,-114.3934367,522.5155767,776.4872175,66.92430776,61005.89833,249.3712067,0.267175856,0.040083865,0.529005926,0.529005926,-135.4294367,533.0730867
JVASP-21454,Ho2Be2SiO7,113,P-42_1m,tetragonal,3D,5.2647,na,-132.5925867,453.1908433,707.6095702,280.1621437,40586.08767,1363.0211,0.287871445,0.166858087,0.558525726,0.558525726,-131.2832667,447.4454
JVASP-21456,Li5(NiN)3,189,P-62m,hexagonal,3D,0.0037,na,8.4815864,8.265909333,93.91347516,89.22857055,4773398.287,4782328.827,0.002728845,0.00259094,7.82E-06,7.82E-06,6.538892033,6.296774467
JVASP-21457,Tm2FeC4,72,Ibam,orthorhombic,3D,0.0077,na,-17.84006303,-9.139835033,223.1764128,120.4623814,482053.03,468065.1133,0.016228253,0.008503923,1.24E-05,1.24E-05,-20.44340243,-8.118799367
JVASP-21459,Nb3CoS6,182,P6_322,hexagonal,3D,0.0432,na,-40.87718667,-38.78576767,395.7126398,355.4768765,211183.9667,207227.02,0.06009086,0.053624106,1.75E-05,1.75E-05,-16.38787267,-13.97287467
JVASP-21460,TbSiPt,62,Pnma,orthorhombic,3D,0.0046,na,-0.6860399,-0.297483033,76.79362614,68.8495537,2713152.533,2714555.567,0.001127542,0.001048443,1.31E-06,1.31E-06,0.650497763,0.954297807
JVASP-21462,YbBa2TaO6,225,Fm-3m,cubic,3D,4.0413,na,89.798581,88.030018,4419.743948,4351.526803,548097.93,561539.2033,0.37010483,0.356583854,4.55E-06,4.55E-06,na,na
JVASP-21467,Ho2InPd2,127,P4/mbm,tetragonal,3D,1.00E-04,na,9.254601667,9.579815667,1331.910128,1431.949518,3248970.5,3265390.733,0.016096145,0.017384088,8.97E-07,8.97E-07,0.752851667,1.820948
JVASP-21469,Te8Rh3,148,R-3,trigonal,3D,0.0047,na,-38.000926,-40.065009,1221.067363,1278.107991,1127039.2,1089532.033,0.073956798,0.077831886,3.43E-06,3.43E-06,na,na
JVASP-21470,Dy3Ni2,12,C2/m,monoclinic,3D,0.0003,na,14.01045222,13.54007591,354.5966473,336.0140962,1408972.167,1415125.867,0.013157152,0.012467198,2.08E-06,2.08E-06,12.02206287,11.5485448
JVASP-21473,CrP4,15,C2/c,monoclinic,1D,0.0013,na,-13.84086769,-9.066077067,1452.717117,1454.713378,257372.47,257386.5767,0.160385135,0.15914986,1.35E-05,1.35E-05,-19.19713767,-13.240997
JVASP-21474,ZrPbF6,67,Cmme,orthorhombic,2D,5.2983,na,-333.40416,266.13416,1683.229008,1358.775215,13143.49152,19210.71867,0.832855214,0.694911817,29.005383,29.005383,-332.45556,303.1519533
JVASP-21475,Sm5Co2,15,C2/c,monoclinic,3D,0.0024,na,4.787159297,5.13816172,79.50960651,83.84209511,467416.05,468534.4867,0.005712601,0.006027428,6.36E-06,6.36E-06,8.3115371,8.313913233
JVASP-21476,RbBe2BO3F2,5,C2,monoclinic,3D,6.3566,na,-194.6347333,444.9615933,1084.37769,713.2106639,28597.267,3883.152267,0.492545402,0.41307978,1.03519109,1.03519109,-136.85252,418.4094867
JVASP-21478,NdP5,11,P2_1/m,monoclinic,3D,0.0197,na,-102.3813377,61.06839333,681.4108943,816.3629729,64202.77633,44069.87967,0.181324227,0.186232194,0.000211773,0.000211773,-100.9934087,66.86814767
JVASP-21479,Sm3Ir,62,Pnma,orthorhombic,3D,0.0012,na,1.532586267,2.303589833,41.3590888,34.21615873,425760.85,425899.3333,0.003198041,0.002694415,7.27E-06,7.27E-06,-5.946704073,-5.051802133
JVASP-21484,TlCdSb,62,Pnma,orthorhombic,3D,0.0144,na,-55.74151967,14.891443,1077.586191,196.3063531,292558.7867,243861.4167,0.081815782,0.019449794,1.46E-05,1.46E-05,-62.46816667,14.63007733
JVASP-21485,SmF3,62,Pnma,orthorhombic,3D,8.0368,na,-369.7430033,493.4865067,1253.109754,230.3384582,9604.453567,984.9128233,0.699274437,0.13742178,4.26564195,4.26564195,-347.8497767,492.9249367
JVASP-21486,K2Be2PbF8,166,R-3m,trigonal,3D,5.6647,na,-318.6486333,419.3881333,1611.60007,803.3481214,15686.65733,4534.370333,0.848368236,0.469906426,1.517996726,1.517996726,-327.4758067,415.7855333
JVASP-21491,LuBO3,167,R-3c,trigonal,3D,5.7521,na,-236.50445,388.3693233,2080.677373,1463.552065,37293.57033,9548.851867,0.792702396,0.810082053,0.380451458,0.380451458,-130.92051,392.0161267
JVASP-21492,SrPd3O4,223,Pm-3n,cubic,3D,0.0632,na,10.000212,24.367094,31.15969313,187.8696478,311583.72,316409.23,0.00207616,0.012439262,1.24E-05,1.24E-05,12.887261,28.205836
JVASP-21493,Nb3Te4,176,P6_3/m,hexagonal,3D,0.0037,na,36.33596967,34.483764,952.4457593,1021.532556,466504.193,455863.4127,0.103199073,0.106441386,2.98E-05,2.98E-05,31.86687867,30.19830933
JVASP-21494,KNbF6,116,P-4c2,tetragonal,3D,5.108,na,-495.8299967,466.2286767,70.55876436,177.1850478,289.66298,811.5944733,0.042314748,0.105644475,56.15283331,56.15283331,-504.2606533,484.4810833
JVASP-21495,MgSO4,63,Cmcm,orthorhombic,3D,6.0514,na,-141.3542333,373.09346,959.9108126,1521.682708,48611.57667,10462.95223,0.363576814,0.811508078,0.657107457,0.657107457,-126.6654167,395.53133
JVASP-21497,Li2CaSiO4,121,I-42m,tetragonal,3D,5.7821,na,-111.37579,404.77867,609.6419265,1172.342702,49402.525,7134.0502,0.203552258,0.649130316,0.316022569,0.316022569,-122.9018067,426.7173933
JVASP-21502,Li2RhF6,58,Pnnm,orthorhombic,3D,2.0351,na,17.1196996,15.8877192,11.50621838,10.4600171,25056.215,25097.13467,0.005977768,0.005425223,0.000117909,0.000117909,31.30143767,29.28080367
JVASP-21503,BaTm2F8,12,C2/m,monoclinic,3D,7.5183,na,-190.6047167,405.8975267,935.9330532,149.0900255,23463.901,908.98977,0.403287877,0.089270737,0.829367068,0.829367068,-145.3087033,409.2629733
JVASP-21508,Li2GeF6,136,P4_2/mnm,tetragonal,3D,5.788,na,-179.25473,360.41869,911.44415,657.1065224,29074.67233,4966.671033,0.407481354,0.37755227,0.901373604,0.901373604,-185.1930767,368.8712867
JVASP-21510,UVC2,62,Pnma,orthorhombic,3D,1.00E-04,na,15.7739843,15.5491621,236.5878229,234.5297465,696306.85,698283.1233,0.012295922,0.012096543,4.09E-06,4.09E-06,14.16969087,14.0266796
JVASP-21511,YB12,225,Fm-3m,cubic,3D,0.005,na,-9.3056187,-9.4299875,481.23709,487.7271305,5557360.7,5484722.767,0.003515362,0.00360952,5.10E-07,5.10E-07,-9.3712481,-9.4231969
JVASP-21512,Pd4Se,114,P-42_1c,tetragonal,3D,0.0026,na,1.263288,2.495838333,369.4428547,331.4018918,1040338.247,1041641.403,0.014277164,0.013331112,2.91E-06,2.91E-06,4.349468667,5.284982267
JVASP-21564,HfSiPd,62,Pnma,orthorhombic,3D,0.0121,na,-26.83670767,11.21276267,483.527104,261.168177,236213.4667,223884.3133,0.036610143,0.023986267,1.82E-05,1.82E-05,-14.61965467,22.652891
JVASP-21565,Mo3P,121,I-42m,tetragonal,3D,0.0009,na,-11.19983757,-11.69180442,468.8117838,489.2878328,957888.5533,953645.2967,0.019647778,0.020512743,2.92E-06,2.92E-06,-12.76020087,-13.2678058
JVASP-21566,Ca5As3,193,P6_3/mcm,hexagonal,3D,0.0326,na,17.79579733,15.0470224,41.60118718,29.26830394,156532.6,162113.9,0.008410678,0.006241054,2.32E-05,2.32E-05,-23.62902833,-24.22267167
JVASP-21567,VCoB3,63,Cmcm,orthorhombic,3D,0.0022,na,-11.34206233,-11.389932,301.3620973,305.6455993,2254959.067,2248491.733,0.005235992,0.005313474,1.38E-06,1.38E-06,-11.52659767,-11.55936533
JVASP-21570,YbLiAlF6,163,P-31c,trigonal,3D,8.1225,na,-105.8032367,523.8081933,709.0289621,145.9053778,63785.71133,537.50189,0.23042693,0.087239176,0.423317073,0.423317073,-135.47992,539.1735867
JVASP-21571,ScB4Ir3,176,P6_3/m,hexagonal,3D,0.0207,na,22.93133733,24.26950367,409.5811167,458.0972614,795406.91,822187.3733,0.022601945,0.023401075,3.73E-06,3.73E-06,26.11058033,27.63677167
JVASP-21576,TmNi4B,191,P6/mmm,hexagonal,3D,0.0047,na,0.294555,0.241087433,28.62532751,42.8287622,2569039.1,2567864,0.000362485,0.000530905,1.48E-06,1.48E-06,-2.66156293,-2.6014065
JVASP-21578,Zn3(Ni10B3)2,225,Fm-3m,cubic,3D,0.0569,na,-17.162304,-17.764772,319.6328161,340.7540613,1085176,1079746.4,0.013021802,0.013946533,2.60E-06,2.60E-06,-23.692855,-23.859382
JVASP-21579,Ti2ReB2,127,P4/mbm,tetragonal,3D,0.0043,na,3.6292262,3.987646033,63.64240706,68.99878814,3066890.5,3067287.2,0.001191007,0.001321663,1.22E-06,1.22E-06,6.1771895,6.657794767
JVASP-21582,Mn(NbS2)3,182,P6_322,hexagonal,3D,0.0312,na,6.162791233,5.809541533,87.01567978,72.97158086,466249.432,469309.0173,0.005711654,0.004683178,2.01E-05,2.01E-05,7.106436333,14.62619533
JVASP-21583,ScNiP,62,Pnma,orthorhombic,3D,0.0088,na,-70.23693433,-29.71503,1240.904607,402.1874467,176795.9667,166386.3233,0.136913405,0.041055912,2.87E-05,2.87E-05,-57.65243167,-21.16952467
JVASP-21585,SmSi3Ni,65,Cmmm,orthorhombic,3D,0.0015,na,-0.011139967,-0.503984467,192.2728367,195.7819241,2952843.233,2963447.1,0.003558119,0.003784976,1.23E-06,1.23E-06,-1.5623497,-1.9494833
JVASP-21586,YSi3Ni,65,Cmmm,orthorhombic,3D,0.0007,na,1.977465433,1.4150789,236.4694796,241.1606515,3110511.7,3126577.467,0.003270686,0.003510093,1.18E-06,1.18E-06,1.0632233,0.570271
JVASP-21587,Sm(SiPt)2,129,P4/nmm,tetragonal,3D,0.0021,na,-14.9662446,-15.4584426,1022.690359,1067.953665,4469211.067,4446963.167,0.020659917,0.021804447,7.71E-07,7.71E-07,-14.84116573,-15.29010387
JVASP-21594,BaNdCuBO5,100,P4bm,tetragonal,3D,0.1419,na,48.34305873,47.37007033,73.81774707,46.9586843,1095203.408,1111438.897,0.002901027,0.002482004,0.003132173,0.003132173,48.74345833,47.457654
JVASP-21595,Nb2Co3Si,194,P6_3/mmc,hexagonal,3D,0.0011,na,37.02032567,36.59036633,2002.056199,1972.746918,1424598.933,1433448.2,0.061308013,0.060293924,1.91E-06,1.91E-06,36.77916033,36.339622
JVASP-21597,HoNi4B,191,P6/mmm,hexagonal,3D,0.0025,na,0.546195433,0.610273767,95.75970596,114.4617179,2526295.633,2523807.633,0.001201043,0.001443912,1.52E-06,1.52E-06,na,na
JVASP-21599,Nb5(NiP)4,87,I4/m,tetragonal,3D,0.0033,na,10.89015973,10.62486717,110.6678353,107.5406284,827788.4367,832469.13,0.00528113,0.005158239,3.36E-06,3.36E-06,na,na
JVASP-21600,HfSiPt,62,Pnma,orthorhombic,3D,0.0124,na,-4.028959,27.73606093,494.0746724,672.849107,209251.9467,206782.7767,0.041864837,0.068625419,2.42E-05,2.42E-05,-0.354927,28.65206267
JVASP-21601,NbSiPt,62,Pnma,orthorhombic,3D,0.0081,na,-20.26288583,-18.80175547,800.6181433,712.9597216,1083670.133,1074195.057,0.021927429,0.01946,2.88E-06,2.88E-06,-22.11189513,-21.31789573
JVASP-21602,NbSiRh,62,Pnma,orthorhombic,3D,0.0092,na,0.157494433,2.903759039,65.73214486,78.35371091,499443.6767,501615.3533,0.004230464,0.004855807,6.26E-06,6.26E-06,7.1043789,9.004499133
JVASP-21603,NaPF6,225,Fm-3m,cubic,3D,7.3428,na,-171.18544,500.49207,1081.679064,533.597379,36911.762,2130.194633,0.454418893,0.317485267,0.798829954,0.798829954,-154.56268,511.07207
JVASP-21606,Rb2SiF6,225,Fm-3m,cubic,3D,7.601,na,-152.07307,503.66761,1032.240942,233.7825235,44635.094,921.5608067,0.404889453,0.140046877,0.710395106,0.710395106,-132.65794,504.50712
JVASP-21608,Ho5Ni2Sb,140,I4/mcm,tetragonal,3D,0.013,na,-20.224197,-19.96715067,343.4590043,337.2334126,600095.1833,594346.2167,0.018133425,0.01767443,5.08E-06,5.08E-06,na,na
JVASP-21609,BaCe2MnS5,140,I4/mcm,tetragonal,3D,0.0006,na,33.41282,32.649437,99.24940644,95.74776566,85777.25367,86531.693,0.028087875,0.027005948,3.45E-05,3.45E-05,na,na
JVASP-21610,MgB4Os3,63,Cmcm,orthorhombic,3D,0.0009,na,1.130783433,0.675063,273.0370718,295.1924631,2228489.223,2220383.873,0.007785266,0.007835209,2.03E-06,2.03E-06,6.257978497,5.672228133
JVASP-21611,ScB4Os3,63,Cmcm,orthorhombic,3D,0.0006,na,27.75815933,27.24419267,1749.827547,1707.279641,1451123.897,1463745.07,0.058149101,0.056916629,1.05E-05,1.05E-05,20.19558233,19.554697
JVASP-21612,Sm10S19,86,P4_2/n,tetragonal,3D,0.2042,na,-107.3607093,253.96388,902.5381527,1428.914711,69414.223,16694.16332,0.272322959,0.73018278,0.416795761,0.416795761,-96.94215667,244.4696633
JVASP-21614,Lu3BC3,63,Cmcm,orthorhombic,3D,0.0048,na,-7.131805333,-8.721618333,1222.72873,1331.212166,883295.4633,867753.91,0.053529755,0.062736371,3.24E-06,3.24E-06,-8.0891568,-9.662366667
JVASP-21617,Ba2LiOsO6,225,Fm-3m,cubic,3D,0.011,na,19.31176,17.07505467,265.8240117,209.4619345,712771.78,718424.12,0.019183564,0.015186818,3.51E-06,3.51E-06,na,na
JVASP-21618,ScF3,221,Pm-3m,cubic,3D,6.1582,na,-418.59464,486.76165,2593.466859,1463.736911,14801.079,6177.7498,1.374898003,0.832974842,1.836961532,1.836961532,-421.1283833,486.5939033
JVASP-21619,Ti2C,227,Fd-3m,cubic,3D,0.0088,na,-34.76755167,-35.45302533,883.9417936,900.3920945,731266.1167,716349.68,0.046356764,0.04681789,3.84E-06,3.84E-06,-18.654589,-20.319676
JVASP-21620,Mg2SiCu3,194,P6_3/mmc,hexagonal,3D,0.0022,na,3.8235158,3.5940399,185.4037528,149.9176477,5295725.267,5317740.267,0.001051457,0.000855465,5.91E-07,5.91E-07,4.231828967,3.8719239
JVASP-21625,NiAsSe,198,P2_13,cubic,3D,0.0132,na,9.8257906,9.0860413,196.4892406,168.8020327,2035184.4,2044693.7,0.00420802,0.00361086,1.33E-06,1.33E-06,4.5800473,3.7946735
JVASP-21626,NiSbSe,198,P2_13,cubic,3D,0.0041,na,13.632017,13.825885,320.7284068,333.1211879,1725906.2,1742674.9,0.007133926,0.007439426,1.61E-06,1.61E-06,12.191953,12.102509
JVASP-21627,AsPdS,198,P2_13,cubic,3D,0.0047,na,16.092423,17.076723,303.6011087,345.5113835,1172358.6,1184822.5,0.009107109,0.010426631,2.43E-06,2.43E-06,24.75936,24.491545
JVASP-21628,AsPdSe,198,P2_13,cubic,3D,0.0113,na,29.11717,27.712162,2122.34065,1958.019709,2503322.3,2549624.6,0.037556414,0.034574947,1.05E-06,1.05E-06,18.482194,17.21703
JVASP-21629,SbTePd,198,P2_13,cubic,3D,0.0089,na,7.6729242,6.7545329,159.6866354,124.4189724,2712356.4,2727068,0.002516379,0.001949582,1.01E-06,1.01E-06,3.9428794,2.8770201
JVASP-21631,Pr(BC)2,127,P4/mbm,tetragonal,3D,0.0088,na,-9.551192333,-9.823158733,460.2250687,492.8282715,4526426.033,4490266.4,0.004181464,0.004517739,6.24E-07,6.24E-07,-8.464843067,-8.761958067
JVASP-21632,Tb(BC)2,127,P4/mbm,tetragonal,3D,0.0051,na,-9.6240342,-10.04970007,847.7165867,914.1540884,5037233.667,4996169.733,0.006651544,0.007282721,5.59E-07,5.59E-07,-10.3396548,-10.76823887
JVASP-21633,Er(BC)2,127,P4/mbm,tetragonal,3D,0.0042,na,-11.28306287,-11.50834427,1182.662377,1212.679816,5568950.233,5519255.6,0.009328157,0.009678766,5.09E-07,5.09E-07,-10.89497767,-11.1818634
JVASP-21634,Ca(Al2Cu)4,139,I4/mmm,tetragonal,3D,0.003,na,1.635660233,1.554244467,111.2871217,131.5159626,4050292.333,4055434.867,0.001147057,0.001346456,6.97E-07,6.97E-07,2.280714467,2.089463067
JVASP-21635,Y(MnAl2)4,139,I4/mmm,tetragonal,3D,0.0007,na,-10.829241,-11.16349397,191.7659412,200.8056795,1631960.267,1624600.467,0.005511118,0.005749616,1.77E-06,1.77E-06,na,na
JVASP-21636,Sc2Al3Ru,194,P6_3/mmc,hexagonal,3D,0.0052,na,16.256922,15.75780697,474.369117,466.6373798,956661.27,961986.8067,0.020178075,0.019664208,2.87E-06,2.87E-06,16.45993947,15.8495837
JVASP-21638,Mg2Co12P7,174,P-6,hexagonal,3D,0.0116,na,-41.199767,-41.34190067,519.6396012,521.515563,358713.0567,355779.2467,0.058250309,0.058237623,1.08E-05,1.08E-05,na,na
JVASP-21639,Ca2Co12P7,174,P-6,hexagonal,3D,0.0212,na,-30.37966933,-30.27029533,540.7575582,535.1806298,254710.02,253427.16,0.052219403,0.052008774,1.22E-05,1.22E-05,na,na
JVASP-21640,Mg(Co3P2)2,187,P-6m2,hexagonal,3D,0.0026,na,19.92317533,19.586657,1262.437414,1252.9583,858807.56,863598.4133,0.06174234,0.061870448,3.31E-06,3.31E-06,9.530923667,9.252963
JVASP-21643,ErVB4,55,Pbam,orthorhombic,3D,0.0011,na,9.924959333,10.44419633,2310.795769,2306.915091,654159.18,650275.5567,0.110856972,0.109947365,5.08E-06,5.08E-06,10.837355,11.567475
JVASP-21644,LuGeIr,62,Pnma,orthorhombic,3D,0.0034,na,-13.6221445,-14.35774707,551.1732754,549.4441843,1429392,1417462.18,0.020397016,0.020843826,2.07E-06,2.07E-06,-15.706078,-16.65709733
JVASP-21647,TbAl7Au3,167,R-3c,trigonal,3D,0.0172,na,18.62288833,17.72487967,605.7744989,573.1616265,2425446.133,2465290.4,0.020641054,0.019252564,1.58E-06,1.58E-06,19.06985617,18.30091777
JVASP-21648,PrAl7Au3,167,R-3c,trigonal,3D,0.021,na,16.24646317,14.9986085,444.4999239,398.2769042,2402288.867,2433400.433,0.017538932,0.015529188,1.65E-06,1.65E-06,16.6377017,15.4965996
JVASP-21649,Lu(Al2Fe)4,139,I4/mmm,tetragonal,3D,0.0006,na,-0.255504433,-0.394726533,65.20435526,65.99654018,1398259.467,1398575.2,0.002125895,0.002167243,2.06E-06,2.06E-06,na,na
JVASP-21653,YbMgAu,62,Pnma,orthorhombic,3D,0.0014,na,8.53036854,8.746667333,436.2140375,444.424943,3713038.9,3734093.6,0.005365973,0.005420371,7.78E-07,7.78E-07,3.05573571,3.149906763
JVASP-21657,LuInRh,62,Pnma,orthorhombic,3D,0.006,na,11.95036527,11.80541263,302.7997064,293.1489227,2490356.667,2506976.333,0.006009119,0.005847246,1.47E-06,1.47E-06,9.650933567,9.6920945
JVASP-21663,SmSbIr,62,Pnma,orthorhombic,3D,0.0006,na,1.5752831,1.8921851,208.2037805,178.2723306,2068533.7,2071980.933,0.004672267,0.004202216,1.78E-06,1.78E-06,0.6985106,1.137318933
JVASP-21665,Ca3(SiIr)4,217,I-43m,cubic,3D,0.0111,na,-0.50271107,1.669176233,0.243978316,2.692504833,965415.6433,966389.2867,8.32E-06,9.20E-05,3.15E-06,3.15E-06,2.1979658,4.3129701
JVASP-21666,Pr(BO2)3,15,C2/c,monoclinic,3D,5.6483,na,-379.7428933,349.5072333,1448.005417,1285.948903,10826.01333,9578.851067,0.791869085,0.669295394,6.248938104,6.248938104,-367.6230433,352.5038667
JVASP-21668,Li2MgSiO4,14,P2_1/c,monoclinic,3D,5.0823,na,-110.4249967,435.1814,742.7276114,492.6069351,63425.62833,2849.696267,0.247202135,0.291400132,0.471812236,0.471812236,-133.4232867,444.5783533
JVASP-21669,CaAgSb,62,Pnma,orthorhombic,3D,0.0035,na,-130.1468377,79.519722,1353.797541,511.4611072,69465.40833,106672.136,0.287809201,0.124297235,0.000185293,0.000185293,-124.964005,85.616229
JVASP-21671,TbAl,57,Pbcm,orthorhombic,3D,0.0012,na,7.806473433,8.607616767,250.5652233,284.3949967,913925.99,918376.6067,0.006074742,0.006829207,4.31E-06,4.31E-06,13.86219653,14.2127861
JVASP-21672,Al12W,204,Im3,cubic,3D,0.0133,na,-20.27941,-20.064708,912.0362552,876.2152289,2217693.233,2176432.033,0.015970397,0.015272348,1.31E-06,1.31E-06,-20.942946,-20.829388
JVASP-21673,Y2Al,62,Pnma,orthorhombic,3D,0.0006,na,1.832063933,0.650362667,410.5339019,398.8707378,928721.27,931140.7167,0.017690685,0.017571133,3.06E-06,3.06E-06,3.377931,2.2633891
JVASP-21675,MnBe2,194,P6_3/mmc,hexagonal,3D,0.0076,na,5.629176683,5.43996414,213.4282314,203.8028752,1964584.5,1966908.067,0.003497157,0.003325763,1.50E-06,1.50E-06,3.7966945,3.648621033
JVASP-21676,Be2Re,194,P6_3/mmc,hexagonal,3D,0.0025,na,-1.069329867,-1.3243884,38.12842811,39.72012903,5830347.533,5829283.4,0.000281364,0.000300727,4.88E-07,4.88E-07,-2.134125033,-2.4545244
JVASP-21677,Be2V,194,P6_3/mmc,hexagonal,3D,0.0092,na,7.391292,8.459481067,223.8882307,229.3977547,1194028.627,1195216.25,0.006486071,0.006927891,2.80E-06,2.80E-06,11.14152183,12.0702522
JVASP-21678,Be2W,194,P6_3/mmc,hexagonal,3D,0.0232,na,28.99767967,29.70455467,1802.002352,1985.82321,1788373.767,1818711.833,0.030102465,0.032555221,1.66E-06,1.66E-06,23.260609,23.7045
JVASP-21679,Ca3(GaNi)4,217,I-43m,cubic,3D,0.0065,na,-9.9893088,-10.225898,142.2040187,147.6559207,1425085.733,1412043.1,0.003992124,0.004110386,1.97E-06,1.97E-06,-8.555138,-9.4883831