JID,Composition,Spg.numb.,Spg.symb.,Cryst.,Dimensionality,OPT SCF gap, MBJ gap,n-Seebeck,p-Seebeck,n-powerfact,p-powerfact,n-cond,p-cond,n-ZT,p-ZT,Avg.elec.mass,Avg.hole mass,n-mp-Seeb,p-mp-Seeb
JVASP-1285,BaO2,139,I4/mmm,tetragonal,3D,2.3272,3.7408,-139.4876967,485.18903,1091.730624,2003.565362,58828.84133,8806.374133,0.371175147,1.061108766,0.884309342,0.884309342,-151.5183833,482.1212333
JVASP-3195,NdSeF,129,P4/nmm,tetragonal,3D,1.0373,1.8284,-126.7405033,251.5812767,1007.351144,2175.836555,61150.33533,37492.41447,0.323529747,0.879723231,0.659230935,0.659230935,-113.7182533,239.4560467
JVASP-3861,SmClO,129,P4/nmm,tetragonal,3D,4.8632,6.0163,-116.1303267,419.9309567,752.3927376,1497.972485,53402.14733,8306.3488,0.24099746,0.843311821,0.432255656,0.432255656,-164.89448,430.4855067
JVASP-4002,Na4Br2O,139,I4/mmm,tetragonal,3D,2.1903,3.7503,-90.174891,451.9893567,598.4029994,748.1733401,73598.905,3815.859067,0.183150336,0.435645264,0.335581323,0.335581323,-89.440243,459.5644133
JVASP-1213,Zn3P2,137,P4_2/nmc,tetragonal,3D,0.0442,na,-106.06758,241.00878,922.4978458,3088.459296,82211.71433,52680.903,0.230455843,1.226679919,0.052604828,0.052604828,-118.1401,246.5753267
JVASP-3885,Tl2PtCl6,225,Fm-3m,cubic,3D,1.6306,2.1189,-257.63867,413.86265,2064.216589,2624.772851,31098.05067,15324.251,0.943561294,1.432090247,0.843908304,0.843908304,-253.58217,429.87328
JVASP-1501,KPrTe2,166,R-3m,trigonal,3D,1.2649,1.7814,-242.4345667,217.7007933,2929.734795,1745.227299,48813.191,36537.043,1.1080046,0.70494933,0.577247994,0.577247994,-237.9131,209.5481933
JVASP-1822,LiDyS2,166,R-3m,trigonal,3D,1.9562,1.5481,-233.15066,264.1405767,2928.951467,1774.130248,53687.334,29158.29567,1.106311704,0.791362022,0.510503651,0.510503651,-219.21636,277.6255367
JVASP-3957,Rb2PtI6,225,Fm-3m,cubic,3D,0.2385,1.1017,-181.85313,309.62615,2034.358218,2723.198688,61515.68533,28405.60633,0.702303526,1.167005112,0.02447202,0.02447202,-180.73105,342.50814
JVASP-3087,Yb(ZnAs)2,164,P-3m1,trigonal,3D,0.1833,1.3201,-168.3814867,198.0538467,2235.785068,2174.858593,133798.1442,55526.76733,0.41503361,0.774989861,0.602998699,0.602998699,-171.2232133,190.5409467
JVASP-3351,RbYTe2,194,P6_3/mmc,hexagonal,3D,1.3814,1.7502,-236.6574267,275.8041033,2805.869891,2153.318289,48811.15267,37832.90193,1.047898055,0.905925644,0.497786981,0.497786981,-239.1204667,297.81635
JVASP-3966,K3BrO,221,Pm-3m,cubic,3D,1.017,3.2103,-109.52473,431.03821,714.7174993,2209.656972,59581.308,11893.052,0.243940004,1.189768843,0.427656887,0.427656887,-101.8582,440.37485
JVASP-4089,RbBiO2,15,C2/c,monoclinic,3D,2.1922,3.5618,-207.24005,312.2794133,1240.961375,1323.015439,29521.53667,13123.4746,0.550908622,0.600990246,1.25234878,1.25234878,-225.22379,310.6452833
JVASP-2559,KCuSe,194,P6_3/mmc,hexagonal,3D,0.3671,1.7573,-53.74711267,230.0218967,363.7165968,2942.577808,130283.4557,42706.9812,0.07549151,1.067863979,0.153108726,0.153108726,-51.66071233,211.37963
JVASP-3798,NaBiF6,148,R-3,trigonal,3D,2.5467,3.435,-239.3531233,563.9254333,816.7485704,154.2284439,14256.37733,482.15095,0.430079976,0.092319412,1.41417436,1.41417436,-244.08641,562.9943133
JVASP-1675,RbLuS2,166,R-3m,trigonal,3D,2.3869,na,-246.4845667,271.0954867,2956.642891,1774.117989,48367.03333,24725.89477,1.15350434,0.812021806,0.594282057,0.594282057,-236.03454,268.5128833
JVASP-1345,YbTe,225,Fm-3m,cubic,3D,1.4864,2.5452,-170.30028,200.63897,2548.149379,1958.632526,87860.599,48654.42933,0.770331906,0.75053494,0.297865062,0.297865062,-178.08659,204.51753
JVASP-2832,PdPtF6,148,R-3,trigonal,3D,0.7471,1.3825,-392.2500267,395.0571767,886.3530473,348.4940066,5778.8446,2233.2898,0.513518572,0.206964183,4.154130469,4.154130469,-416.7762733,415.7115533
JVASP-3054,RbCaAs,129,P4/nmm,tetragonal,3D,1.5137,2.5304,-73.87566667,411.8582767,474.4045164,1064.983015,88908.268,6111.454167,0.127161569,0.612044368,0.251631717,0.251631717,-68.057578,443.83533
JVASP-3540,K2ReCl6,225,Fm-3m,cubic,3D,0.8544,na,-318.26314,325.86483,1212.376867,1470.520447,11969.19533,13848.288,0.677361944,0.808854948,1.683553399,1.683553399,-343.77217,348.92545
JVASP-1780,LiIn2Rh,225,Fm-3m,cubic,3D,0.021,0.034,-1.669740967,-1.784294767,26.66722609,30.42042962,9564882.467,9555031.867,0.000114692,0.000130972,2.93E-07,2.93E-07,-2.0152121,-2.1323905
JVASP-3513,YbBr2,58,Pnnm,orthorhombic,3D,4.7496,6.6651,-153.9993233,407.6152533,1390.730991,1240.199879,60109.51933,7469.798,0.45561322,0.688032418,0.510633183,0.510633183,-86.049403,428.2551933
JVASP-1735,LuB2,191,P6/mmm,hexagonal,3D,0.076,0.0443,-7.021372833,-6.8644189,309.4062183,291.8401211,6168238.167,6144217.667,0.002031576,0.001919288,4.69E-07,4.69E-07,na,na
JVASP-3774,K2MgCl4,139,I4/mmm,tetragonal,3D,5.1035,7.5615,-106.84595,413.29011,685.5308386,620.0601591,59968.65233,3618.210133,0.233835132,0.359987346,0.398977878,0.398977878,-107.8259533,420.4262733
JVASP-1525,CaHgO2,166,R-3m,trigonal,3D,2.3029,3.2018,-213.3068933,333.71842,1484.255716,1837.420916,36503.74267,16292.06633,0.55356564,0.89642504,1.029804606,1.029804606,-159.7938033,328.8572067
JVASP-4134,Ca3BN3,123,P4/mmm,tetragonal,3D,0.2124,na,-179.4074167,259.0263833,1332.331765,2186.759224,42654.47967,28919.04498,0.474402824,0.949576708,0.489328583,0.489328583,-108.5424933,241.39761
JVASP-1294,BaSe,225,Fm-3m,cubic,3D,1.9147,2.8512,-208.56679,311.14738,2471.154566,3106.17717,56808.01267,32084.40033,0.866856976,1.238706633,0.509678764,0.509678764,-199.89903,316.65247
JVASP-1198,ZnTe,216,F-43m,cubic,3D,1.0565,2.2333,-50.482901,267.69205,367.0802989,3383.661938,144036.47,47218.91667,0.062422818,1.299324656,0.103201058,0.103201058,-59.480544,256.84639
JVASP-3723,SrHClO,186,P6_3mc,hexagonal,3D,5.2065,7.4445,-94.13965733,517.8556033,635.6860535,445.1676592,73364.134,1718.935163,0.197218096,0.263632171,0.388690733,0.388690733,-107.79974,538.3279533
JVASP-2901,RbAuS,63,Cmcm,orthorhombic,2D,2.1728,3.313,-209.5412733,282.88052,1820.853603,1502.309058,43135.43333,15142.69537,0.701498091,0.663388157,0.91751483,0.91751483,-217.2634833,266.80377
JVASP-3810,YCl3,12,C2/m,monoclinic,2D,4.5649,5.2828,-350.8426933,334.5446333,1427.940245,651.1404687,11626.63933,5693.272267,0.774845115,0.368417802,1.848008266,1.848008266,-407.9076533,457.43194
JVASP-2736,Li2CeN2,164,P-3m1,trigonal,3D,1.3289,1.206,-474.05972,281.46051,508.4486646,1630.596352,2298.938767,20497.98467,0.301496842,0.758458126,12.46866949,12.46866949,-486.5586633,301.6091333
JVASP-1330,Be2C,225,Fm-3m,cubic,3D,1.4915,1.7772,-164.10343,201.9811,2263.992965,2660.573834,84069.75,65215.95367,0.677249368,0.836813886,0.312164443,0.312164443,na,na
JVASP-3369,K3MnO4,121,I-42m,tetragonal,3D,1.1507,1.0252,-301.2518233,418.97131,305.3131886,351.6254821,3359.693967,2356.454767,0.178697366,0.208260223,3.559312304,3.559312304,45.58711833,8.167136933
JVASP-2814,Na2AgAs,63,Cmcm,orthorhombic,3D,0.8028,na,-182.6665567,294.5112467,2460.423375,2803.282409,77161.94067,31830.34,0.679420757,1.129563303,0.590807949,0.590807949,-170.79656,285.9348
JVASP-3069,Li2CeP2,164,P-3m1,trigonal,3D,0.8435,0.6938,-524.47565,417.2135867,204.3880319,2065.398313,762.3733633,12064.394,0.121410088,1.097646845,22.48075452,22.48075452,-568.3801133,442.4554567
JVASP-2253,Tm2SO2,164,P-3m1,trigonal,3D,3.2076,4.7331,-211.0397067,299.85214,1731.048198,2134.537295,39309.22667,22684.78023,0.703900623,0.990510621,0.698782188,0.698782188,-228.12191,298.7029767
JVASP-3636,AsI3,148,R-3,trigonal,0D,2.0162,2.4218,-343.3552767,389.4512067,2186.961722,1718.251831,18486.25833,11341.0511,1.135874777,0.958527856,0.951014791,0.951014791,-328.3550033,414.65943
JVASP-1234,BaTiO3,99,P4mm,tetragonal,2D,1.7486,2.1691,-214.2800667,376.21104,1937.85943,1703.072117,39816.7728,16210.25246,0.724304877,0.833365432,3.28027505,3.28027505,-212.5250267,288.1064767
JVASP-3216,NaZnAs,129,P4/nmm,tetragonal,3D,0.2432,na,-122.1804133,259.5086867,1614.43731,4459.622835,114662.6763,57965.71367,0.359937793,1.473107764,0.34632625,0.34632625,-114.9579633,259.00842
JVASP-1321,BeSe,216,F-43m,cubic,3D,2.8476,3.8845,-164.26665,260.8831,2200.513535,2691.093916,81550.24,39540.027,0.671744493,1.052360711,0.293866637,0.293866637,na,na
JVASP-1279,LuN,225,Fm-3m,cubic,3D,0.3518,1.4044,-151.52232,214.3276,2583.006028,2318.320558,112505.0967,50468.13833,0.668060482,0.830117829,0.042405882,0.042405882,-138.79627,220.20658
JVASP-2556,Ca(CdSb)2,164,P-3m1,trigonal,3D,0.3282,0.7271,-76.44836567,157.23233,1021.837248,1562.388258,151177.4147,62286.79767,0.15071943,0.440313815,0.000499729,0.000499729,-101.5189633,175.10241
JVASP-2820,KLiS,129,P4/nmm,tetragonal,3D,3.347,4.889,-95.44425133,375.5063967,561.2485085,1348.092806,62396.65,10104.6619,0.18713211,0.709507223,0.358875603,0.358875603,-96.40956433,379.9470167
JVASP-2433,Ca4P2O,139,I4/mmm,tetragonal,3D,1.2688,1.9559,-115.01023,264.82841,866.3256788,1845.343332,62517.54033,25796.77633,0.272054495,0.853643074,0.677357272,0.677357272,-107.1700067,265.18881
JVASP-3930,K5CuSb2,166,R-3m,trigonal,3D,0.9763,1.8813,-101.4327403,385.5442867,904.5342185,1189.382442,86879.49633,7891.636833,0.209854007,0.684707715,0.189208592,0.189208592,-69.39702933,379.3634833
JVASP-2646,CaGeN2,122,I-42d,tetragonal,3D,2.8928,4.299,-102.7756867,250.9019533,717.7605065,1238.164764,68350.599,21851.58533,0.23185533,0.572800723,0.454733745,0.454733745,-86.204178,269.2274633
JVASP-3222,PrZnPO,166,R-3m,trigonal,3D,1.1516,na,-265.73708,197.9520333,2952.935398,1989.569539,44139.73,44133.85533,1.138403943,0.755136893,0.989307288,0.989307288,-258.41626,201.0255967
JVASP-2943,TaCu3Te4,215,P-43m,cubic,3D,1.3085,1.5513,-259.80039,238.39761,1771.983245,2039.014501,26253.065,35877.033,0.869059481,0.827452605,0.777560745,0.777560745,-302.24144,245.08677
JVASP-3876,Rb2ZrCl6,225,Fm-3m,cubic,3D,3.488,3.9996,-390.74321,378.73629,1513.525945,1983.843217,9913.043,13830.36067,0.857098164,1.080440898,1.954659261,1.954659261,-416.39612,412.8462
JVASP-3075,LiZnSb,186,P6_3mc,hexagonal,3D,0.0648,0.9981,-260.5599133,215.86241,5859.342356,2137.742976,85296.35033,46577.303,1.512573934,0.842588199,0.353215763,0.353215763,-257.0077633,197.8070533
JVASP-3297,K3Ag3As2,166,R-3m,trigonal,3D,1.186,1.7442,-188.04516,314.7402633,2128.696236,2141.480562,73028.712,21553.76833,0.555504557,1.033547318,0.839464088,0.839464088,-231.6876967,342.28194
JVASP-1174,GaAs,216,F-43m,cubic,3D,0.7514,1.3207,-82.77046767,238.58425,1468.390512,3569.096251,214333.8433,62701.03633,0.177119526,1.132818517,0.001214875,0.001214875,-97.815983,233.50906
JVASP-3735,CaHBr,129,P4/nmm,tetragonal,3D,3.9599,4.9646,-213.00669,340.6283467,1386.06309,1378.392319,32846.23823,12818.13633,0.564626876,0.692779932,1.401024779,1.401024779,-275.4851433,412.39537
JVASP-1825,LiHoS2,166,R-3m,trigonal,3D,1.9934,2.7276,-233.4658233,269.0121,2938.638848,1850.099184,53713.85667,29323.273,1.109454911,0.825277971,0.51163754,0.51163754,-219.31205,281.6293567
JVASP-3033,RbAuSe,63,Cmcm,orthorhombic,2D,1.9664,2.9361,-197.0874333,230.4895433,1787.805764,1267.925993,45742.004,21744.50593,0.670110706,0.541205806,0.611575781,0.611575781,-201.48992,247.7577533
JVASP-3231,BaLiP,194,P6_3/mmc,hexagonal,3D,0.9774,1.607,-249.5294767,208.8313767,3527.64218,1887.5681,56794.275,43236.49567,1.283621153,0.756583903,0.454601176,0.454601176,-242.7963433,205.7986333
JVASP-2367,CdSiP2,122,I-42d,tetragonal,3D,1.4611,2.0167,-138.0588733,291.9671767,1395.153531,2712.71372,75677.073,32645.34933,0.37689309,1.11656374,0.480826247,0.480826247,-175.1783733,292.8525467
JVASP-3951,Rb2PdBr6,225,Fm-3m,cubic,3D,0.1021,1.3433,-214.4617,350.15631,2061.000019,2410.23715,44810.36767,19657.843,0.823243339,1.19492825,0.128778476,0.128778476,-221.77708,377.73664
JVASP-1600,KYO2,166,R-3m,trigonal,3D,4.1423,5.6703,-285.89981,456.6870133,2745.435451,1474.852347,33695.43233,7054.6873,1.203335677,0.829885715,0.906396463,0.906396463,-262.8001767,450.5012733
JVASP-3099,TiTl2F6,164,P-3m1,trigonal,3D,3.589,2.9616,-488.0404633,380.3801433,184.0263151,1967.664618,754.8576967,12848.55547,0.110258441,1.049503725,20.77288212,20.77288212,-496.6685933,371.7401633
JVASP-3621,BiBrO,129,P4/nmm,tetragonal,2D,2.2934,3.2106,-117.1460967,422.01209,1202.543387,2280.71406,67780.785,13158.871,0.336463403,1.203973228,0.676172029,0.676172029,-116.807659,426.2424867
JVASP-2142,FeS2,58,Pnnm,orthorhombic,3D,0.8661,na,-364.58996,462.8955167,2127.759265,2272.425386,15921.83067,11005.41247,1.034786468,1.242841655,1.851015001,1.851015001,-396.4444433,439.5734333
JVASP-4128,AcBrO,129,P4/nmm,tetragonal,2D,4.2765,5.2005,-112.6640333,381.4836767,772.1572245,1577.491829,58558.105,10579.0935,0.257364626,0.846187805,0.463575074,0.463575074,-140.3823533,380.5183433
JVASP-3090,BaHfN2,129,P4/nmm,tetragonal,3D,1.2982,2.2405,-184.16996,314.20118,1287.595749,2769.876256,89332.53477,26457.97463,0.322287784,1.163509985,7.731490145,7.731490145,-248.61339,324.5918833
JVASP-2730,NaNdO2,141,I4_1/amd,tetragonal,3D,3.7731,5.3772,-153.5405567,408.9345933,1284.755302,2517.348706,54623.76,13507.70327,0.441088803,1.353730492,0.463025187,0.463025187,-106.36811,409.14694
JVASP-1552,RbLuO2,166,R-3m,trigonal,3D,3.8211,na,-239.3918233,456.1320067,2631.69325,1790.416171,45896.97767,8599.189667,1.036878357,1.002445273,0.629413344,0.629413344,-240.1918567,444.4113067
JVASP-3726,CaHI,129,P4/nmm,tetragonal,3D,3.6162,4.2382,-220.8527867,309.6355867,1959.338941,1428.857434,41484.333,16579.02267,0.770627726,0.716463153,0.668541354,0.668541354,-221.5189,383.3115667
JVASP-3450,TiPbO3,99,P4mm,tetragonal,2D,1.8126,1.8755,-278.2933767,186.1161633,1967.829467,1634.670539,28109.67598,47409.62367,0.862252008,0.609532617,240.8209577,240.8209577,-301.5746367,197.0859933
JVASP-4119,Mg(HO)2,164,P-3m1,trigonal,2D,4.6363,6.7515,-120.1245033,446.8574133,800.4621187,1318.748125,55499.40033,6524.012233,0.28974455,0.736669992,0.52598941,0.52598941,-114.4549733,450.7674633
JVASP-2346,Cd(GaS2)2,82,I-4,tetragonal,3D,2.113,3.7064,-70.902729,381.8155133,457.4152121,1625.044783,91052.69933,11159.809,0.12527657,0.885189324,0.247675557,0.247675557,-68.24494933,393.2452067
JVASP-1438,NaCrSe2,166,R-3m,trigonal,3D,0.8079,na,-236.3353967,413.1456067,3117.1371,1297.269931,55923.82667,7619.434967,1.131641085,0.719946613,0.427629915,0.427629915,na,na
JVASP-1420,Na2Te,225,Fm-3m,cubic,3D,2.1367,3.7865,-67.75241333,424.07369,444.8395866,2616.105305,96906.719,14546.97067,0.116056487,1.375648765,0.242329509,0.242329509,-65.89884,411.54543
JVASP-1687,LiZnP,216,F-43m,cubic,3D,1.4703,1.9278,-186.15216,233.48,2674.247609,3061.301443,77173.013,56157.36567,0.843901658,1.024207468,0.358871527,0.358871527,-169.30124,237.79728
JVASP-3630,BI3,176,P6_3/m,hexagonal,0D,2.6511,3.5368,-339.6714333,388.20415,799.4843039,1308.196184,6961.206667,8427.97921,0.454814896,0.742625134,4.961288582,4.961288582,-330.21631,385.4240067
JVASP-3315,BeCN2,122,I-42d,tetragonal,3D,4.1359,na,-140.40237,236.1046167,1175.243813,1304.54998,60445.63267,25025.57967,0.416700551,0.560025208,0.657408106,0.657408106,-104.3163133,259.8542967
JVASP-3096,Tl2SnF6,164,P-3m1,trigonal,3D,4.3464,5.0617,-243.4115433,465.3591733,1826.608405,1713.151287,30790.106,7904.331803,0.799874938,0.953112709,0.769026814,0.769026814,-223.69206,446.0570833
JVASP-1318,CaTe,225,Fm-3m,cubic,3D,1.559,2.0607,-187.89523,212.27578,2584.519005,1957.23264,73206.26,43435.17333,0.850765734,0.783499389,0.343583834,0.343583834,na,na
JVASP-2634,Th2SN2,164,P-3m1,trigonal,3D,1.7175,2.3784,-200.3770233,300.3421833,1207.94246,2235.698806,30510.91767,25872.46448,0.508053555,0.996592971,0.934491668,0.934491668,-174.00533,302.9896467
JVASP-1381,Li2Se,225,Fm-3m,cubic,3D,3.252,na,-194.9769,340.41358,2375.114395,2758.713374,62476.71833,23806.35067,0.823398744,1.266417882,0.439911755,0.439911755,-176.49236,331.82587
JVASP-3549,KBrO3,160,R3m,trigonal,3D,3.7625,4.7787,-220.1901,314.0862533,1618.815429,1047.139311,33379.78233,11189.50233,0.650106021,0.546134035,0.654602289,0.654602289,-269.13957,355.57314
JVASP-2316,PrSF,129,P4/nmm,tetragonal,3D,1.3288,2.3752,-120.08484,305.40304,921.5412283,2177.385569,64620.917,23666.75493,0.296913515,0.992033117,0.608767917,0.608767917,-114.5206633,317.4848133
JVASP-3141,Yb(MgSb)2,164,P-3m1,trigonal,3D,0.7913,1.2547,-182.1778,167.8721067,3361.443488,1341.973539,100215.133,50369.53433,0.849371267,0.463266431,0.410361886,0.410361886,-183.8144267,174.4718367
JVASP-1705,RbPrSe2,166,R-3m,trigonal,3D,1.8688,2.7827,-243.0493367,266.26938,2718.963686,1589.84035,45383.11833,22763.5048,1.054562938,0.735065123,0.604850002,0.604850002,-239.1617167,264.72605
JVASP-3174,Ca3PN,221,Pm-3m,cubic,3D,0.8206,1.5493,-175.08335,176.62847,1588.472021,1770.861191,51819.101,56762.708,0.597187561,0.639120029,0.608527517,0.608527517,-153.92938,176.85443
JVASP-2640,Na2SbAu,63,Cmcm,orthorhombic,3D,0.0185,na,-137.7442067,276.7082667,2103.43084,4866.974714,112161.0033,51317.805,0.432472132,1.650628175,0.410029006,0.410029006,na,na
JVASP-2703,Na3Sb,194,P6_3/mmc,hexagonal,3D,0.5446,na,-42.03308967,326.56127,234.5388731,2021.777428,127957.0767,18434.6175,0.049359379,0.972723051,0.118476855,0.118476855,-40.52292267,326.4563367
JVASP-2463,AlAgS2,122,I-42d,tetragonal,3D,1.9765,3.1432,-74.22098433,399.52558,506.9818974,1455.713771,92092.56133,9027.062833,0.136181281,0.833194517,0.281937043,0.281937043,-67.41935733,406.54251
JVASP-3123,SrAgP,194,P6_3/mmc,hexagonal,3D,0.0374,0.7476,-226.0641533,109.8693433,3185.994331,1395.599545,62820.10067,116000.3843,0.741856069,0.303211746,0.016436331,0.016436331,-199.6336333,109.44517
JVASP-1351,YbS,225,Fm-3m,cubic,3D,2.2067,3.4576,-177.25009,249.64327,2465.256392,2167.37934,78467.38233,34777.24733,0.767678533,0.917885166,0.314679632,0.314679632,-188.59068,258.83877
JVASP-1594,KScO2,166,R-3m,trigonal,3D,3.6782,4.9,-287.2237467,404.56336,2420.754315,1559.233115,29318.91267,10073.1007,1.098400309,0.825466077,0.925844363,0.925844363,-277.93931,413.3380267
JVASP-2589,BaSe2,15,C2/c,monoclinic,3D,0.0225,na,-277.98389,346.7268133,8745.363446,1614.012823,91335.28977,14012.8534,2.154609951,0.819605618,1.661456348,1.661456348,na,na
JVASP-1852,KYTe2,166,R-3m,trigonal,3D,1.3247,1.7511,-252.1789933,202.7859833,3019.08726,1938.660485,46349.11233,42626.00867,1.159348158,0.734397957,0.612963136,0.612963136,-247.9300567,189.5683467
JVASP-2754,Sr(CdP)2,164,P-3m1,trigonal,3D,0.7248,1.6267,-123.6281633,217.2615567,1363.241371,2171.994975,118736.2653,46088.09267,0.310569433,0.824486956,0.716731058,0.716731058,-101.569592,221.5934533
JVASP-3147,ScAgO2,194,P6_3/mmc,hexagonal,3D,2.2939,3.0115,-159.3867333,431.9408733,1433.451381,2499.625612,60117.152,13216.11527,0.411296665,1.322379296,1.050142166,1.050142166,-172.1819933,445.30064
JVASP-2376,ZnSiP2,122,I-42d,tetragonal,3D,1.4284,2.0265,-191.5515533,235.7018367,2442.383717,1958.132904,69208.52667,37665.46833,0.762372899,0.762352533,0.424928098,0.424928098,-207.3189767,252.7719133
JVASP-2517,NdZnAsO,129,P4/nmm,tetragonal,3D,0.8476,1.6216,-95.83710133,252.73017,1071.665948,3278.963477,85457.886,45966.7091,0.253155994,1.224884728,0.541816173,0.541816173,-110.0212353,248.27112
JVASP-3228,SrLiP,194,P6_3/mmc,hexagonal,3D,1.3965,2.0081,-262.5901367,212.9852967,3396.298228,1904.125998,51219.04733,41871.031,1.24141745,0.784316815,0.648589907,0.648589907,-258.43347,208.3097967
JVASP-1207,CdAs2,98,I4_122,tetragonal,3D,0.051,0.8553,-96.24270333,240.5231833,1352.307,2241.435667,146550.31,39626.92967,0.269604909,0.743563822,0.002595856,0.002595856,-90.202833,239.3112033
JVASP-2652,K2ReF6,164,P-3m1,trigonal,3D,1.4685,0.0073,-434.82549,424.9338967,196.882525,205.5502924,1019.738507,1117.554257,0.117777163,0.122736286,15.66424076,15.66424076,-451.0886933,424.9418167
JVASP-1333,CaS,225,Fm-3m,cubic,3D,2.3466,3.268,-199.36635,262.34985,2585.196086,2070.177791,65041.384,30077.79567,0.890670073,0.922345443,0.397733878,0.397733878,-207.42981,266.88861
JVASP-3960,Rb2PdCl6,225,Fm-3m,cubic,3D,1.0907,1.7344,-248.41234,379.48574,2000.051954,1784.735709,32411.18767,12393.18667,0.906934382,0.996050199,0.782622437,0.782622437,-270.47305,407.38143