JID,Composition,Spg.numb.,Spg.symb.,Cryst.,Dimensionality,OPT SCF gap, MBJ gap,n-Seebeck,p-Seebeck,n-powerfact,p-powerfact,n-cond,p-cond,n-ZT,p-ZT,Avg.elec.mass,Avg.hole mass,n-mp-Seeb,p-mp-Seeb
JVASP-22587,RbVF3,221,Pm-3m,cubic,3D,0.1425,0.0396,41.963018,41.359775,1735.945077,1699.477691,985831.18,993480.01,0.080550172,0.078384725,2.66E-06,2.66E-06,na,na
JVASP-22588,ClF3,62,Pnma,orthorhombic,3D,2.6332,4.4632,-439.84104,456.3497133,372.7791745,477.4824311,1935.925347,2390.614633,0.221015521,0.282097694,23.25951976,23.25951976,-455.5051267,481.84827
JVASP-22589,KVF3,221,Pm-3m,cubic,3D,0.0609,0.0113,42.5734,42.105352,1890.565227,1863.773494,1043073.7,1051280.3,0.079531091,0.07795261,2.56E-06,2.56E-06,na,na
JVASP-22590,HgO2,61,Pbca,orthorhombic,3D,0.088,na,-201.8736033,290.3600133,2051.542453,1817.047684,50909.21667,21880.43867,0.665031775,0.829796171,0.062052861,0.062052861,-193.3822367,288.3552033
JVASP-22591,ZnS,156,P3m1,trigonal,3D,2.0943,3.593,-68.71827933,251.75933,114.2737181,1305.244959,71757.34145,15281.20408,0.027269221,0.629255548,38.46199554,38.46199554,-60.62116533,280.9926167
JVASP-22592,Cu2WS4,121,I-42m,tetragonal,2D,0.9012,1.6956,1052.1616,341.6808067,2.317530513,1948.300326,2.045998633,17263.06,0.001390345,0.993114816,3282.470967,3282.470967,-369.75063,337.7429033
JVASP-22593,K2MnF6,225,Fm-3m,cubic,3D,2.0419,1.6422,1.059097733,-0.18355201,0.103827646,0.003118431,92563.74767,92558.82367,4.94E-05,1.48E-06,2.11E-05,2.11E-05,na,na
JVASP-22594,CaCrF6,148,R-3,trigonal,3D,2.1581,1.7365,-36.43272467,-37.678218,101.8517033,108.1475853,69963.34267,69706.59433,0.051189927,0.0544065,2.77E-05,2.77E-05,78.553092,75.73017567
JVASP-22595,MoF3,167,R-3c,trigonal,3D,0.0063,na,40.484266,41.82292267,1029.362496,1074.19665,388037.1667,390170.7567,0.054944885,0.057467308,1.01E-05,1.01E-05,-391.8883467,290.40297
JVASP-22596,MnPtF6,148,R-3,trigonal,3D,0.3245,0.2252,164.62617,163.0705867,7887.546451,7889.625506,288196.5233,293809.7033,1.264534287,1.24761868,1.08E-05,1.08E-05,na,na
JVASP-22597,CsNiF3,194,P6_3/mmc,hexagonal,3D,3.3547,na,-23.860436,-25.16062167,25.17190116,28.20564474,52669.06633,52552.18867,0.01331332,0.01490248,5.72E-05,5.72E-05,-460.3484333,459.5644233
JVASP-22599,HfVF6,225,Fm-3m,cubic,3D,0.9689,2.3452,60.190768,58.947819,2412.157532,2332.178014,665803.23,671160.23,0.248687106,0.238470201,4.02E-06,4.02E-06,na,na
JVASP-22601,Rb2MnF6,225,Fm-3m,cubic,3D,2.0744,1.6396,14.853391,13.352246,8.047216733,6.512921239,36474.93033,36531.47233,0.004525546,0.003661999,4.95E-05,4.95E-05,na,na
JVASP-22602,BeF2,180,P6_222,hexagonal,3D,8.212,12.3601,-160.03449,492.14736,973.0028588,568.3995737,38457.46467,2347.295833,0.399123165,0.336600516,0.746100183,0.746100183,-153.2851133,503.68512
JVASP-22604,Cr2F5,15,C2/c,monoclinic,3D,0.0075,0.0068,-1.547904333,-0.289182,390.9275535,369.5096098,366368.31,365174.2033,0.042727271,0.042594516,2.13E-05,2.13E-05,-19.51485583,28.11535767
JVASP-22605,RbMnF3,221,Pm-3m,cubic,3D,0.0126,na,53.245839,53.09934,2513.291277,2519.164059,886485.17,893466.36,0.105521575,0.105524496,3.14E-06,3.14E-06,na,na
JVASP-22606,MnSnF6,148,R-3,trigonal,3D,0.0333,0.0231,-77.067223,-77.17388533,1108.655937,1104.031652,184057.02,182695.2333,0.188186007,0.187912501,1.90E-05,1.90E-05,na,na
JVASP-22607,MoF6,229,Im-3m,cubic,3D,4.1506,4.6971,-443.31521,519.27406,138.7803112,229.1058798,706.1591533,849.6557067,0.083225063,0.137237569,25.46317964,25.46317964,-510.88053,517.84621
JVASP-22608,NiPtF6,148,R-3,trigonal,3D,0.9156,1.015,-12.54373033,-13.655607,50.22488001,58.8522934,302727.86,302163.7967,0.010402282,0.012214817,7.92E-06,7.92E-06,-436.1822433,446.2163
JVASP-22609,FeF3,150,P321,trigonal,3D,0.4142,na,50.65287933,50.09179667,605.3948992,594.125118,220559.9767,221504.02,0.105396812,0.102819652,1.20E-05,1.20E-05,na,na
JVASP-22610,CrHgF6,148,R-3,trigonal,3D,0.7563,1.5772,55.95477167,55.816745,646.5678083,648.2955231,205650.84,207191.21,0.106516756,0.10699038,2.00E-05,2.00E-05,26.29691333,25.76722233
JVASP-22611,SiO2,182,P6_322,hexagonal,2D,5.5433,8.5061,-106.0762167,422.9683467,696.5573037,1483.152524,61081.26367,8820.320367,0.224674772,0.821281834,0.380995742,0.380995742,-134.06928,396.98251
JVASP-22612,CrCdF6,148,R-3,trigonal,3D,1.824,0.3575,-19.64435367,-20.47784533,46.7337473,48.8528816,88084.94567,87981.28767,0.019461177,0.020337558,2.90E-05,2.90E-05,46.7812,44.64002567
JVASP-22613,NiPbF6,148,R-3,trigonal,3D,0.915,0.5538,-397.5754233,431.3808267,823.3832619,927.5473452,5304.685267,4977.0737,0.476457306,0.541172785,2.920014519,2.920014519,-113.3466167,-117.6042767
JVASP-22614,SiO2,148,R-3,trigonal,3D,5.6771,8.8854,-172.08106,354.3353233,1292.254525,258.6318501,43693.67233,2070.604367,0.525845424,0.153799398,0.910981517,0.910981517,-141.9158233,400.7125833
JVASP-22615,NiF2,136,P4_2/mnm,tetragonal,3D,0.0179,0.0112,-36.52849743,-36.7516137,1759.400488,1755.025998,1108773.533,1102290.553,0.066665598,0.066411854,2.52E-06,2.52E-06,-304.6976333,112.2755207
JVASP-22616,PNF2,36,Cmc2_1,orthorhombic,3D,5.8337,8.1311,-260.7503733,425.1021533,2263.686048,1785.353364,26700.32533,10044.5339,0.903876461,0.8432667,0.807870168,0.807870168,-159.5193133,400.4496533
JVASP-22617,NiSnF6,148,R-3,trigonal,3D,1.1445,2.8153,11.95777053,11.13501767,46.6382677,42.43760515,297608.88,297896.31,0.008896722,0.008086266,9.88E-06,9.88E-06,-361.5085833,265.2876267
JVASP-22618,ZnS,186,P6_3mc,hexagonal,3D,2.1391,3.6647,-57.87015133,281.8208667,375.8694345,1827.904434,112737.0433,23107.93533,0.090570421,0.872082243,0.202427476,0.202427476,-55.98344133,289.48849
JVASP-22619,MnF2,136,P4_2/mnm,tetragonal,3D,0.0035,0.0131,12.724528,12.65372367,715.0926203,729.9715682,1369190.253,1367475.627,0.026669367,0.026920975,4.20E-06,4.20E-06,-91.34831333,265.2057933
JVASP-22620,KNiF3,221,Pm-3m,cubic,3D,0.0215,na,-1.1045538,-1.0819975,2.673979576,2.564580709,2191716.3,2190603.9,4.85E-05,4.65E-05,1.29E-06,1.29E-06,0.066879813,43.763341
JVASP-22622,AlFeF5,71,Immm,orthorhombic,3D,0.2422,0.558,39.369851,39.61783867,1761.065064,1725.432508,112912.6834,110176.0084,0.201418529,0.198155962,0.000500785,0.000500785,53.72929333,82.40056333
JVASP-22623,ZnS,186,P6_3mc,hexagonal,3D,2.0949,0.4698,-11.74741833,285.5634867,112.6201872,1306.085063,72136.07267,14773.86193,0.02702544,0.634387366,61.46544644,61.46544644,na,na
JVASP-22624,Rb2NiF4,139,I4/mmm,tetragonal,3D,0.036,0.0497,-17.10981938,-18.60832887,35.1961479,25.52704616,1107268.567,1110636.643,0.001129329,0.000886744,0.003149537,0.003149537,-100.8141317,193.575668
JVASP-22625,SO3,14,P2_1/c,monoclinic,1D,5.3538,6.9329,-158.0324533,364.5248133,769.5696269,404.9545,30802.98667,3159.910267,0.339269765,0.238438894,0.716778628,0.716778628,-200.6295333,426.0705967
JVASP-22626,TeF4,19,P2_12_12_1,orthorhombic,1D,4.1272,6.4655,-354.0935867,172.6896,1097.757148,996.3068863,9119.154033,34767.59567,0.616320078,0.413312939,2.283397583,2.283397583,-370.1367233,204.2290833
JVASP-22627,KCrO2,166,R-3m,trigonal,3D,0.0004,na,29.51211033,29.397479,1293.395803,1276.738769,359135.7153,362046.3333,0.10398269,0.102152236,0.000154969,0.000154969,na,na
JVASP-22628,FeF3,227,Fd-3m,cubic,3D,0.5474,na,-0.075334395,-1.1539841,0.001291777,0.302521844,227614.9767,227173.1967,2.32E-07,5.38E-05,1.06E-05,1.06E-05,-351.87948,315.94993
JVASP-22629,NiF2,58,Pnnm,orthorhombic,3D,0.0059,0.0105,-39.40187003,-39.7855698,1728.351956,1730.883718,851406.3167,846477.4067,0.092712387,0.092822019,3.27E-06,3.27E-06,-404.22652,340.51347
JVASP-22630,CdI2,164,P-3m1,trigonal,2D,2.2634,3.4561,-270.70416,419.7255133,3327.448556,2587.551523,45758.91933,14705.281,1.32810213,1.352581949,0.712098623,0.712098623,-271.54467,415.30269
JVASP-22632,CrCl3,148,R-3,trigonal,2D,0.011,na,13.54113457,13.4821148,200.414851,197.4459087,249192.43,250395.2967,0.022615968,0.022239649,2.29E-05,2.29E-05,-419.7781367,359.84996
JVASP-22633,SiC,186,P6_3mc,hexagonal,3D,2.0599,2.819,-209.2762267,297.9738567,2897.39156,1452.898446,56913.774,15780.8748,0.982220692,0.741370122,0.43708008,0.43708008,-182.09392,294.0568267
JVASP-22634,P3N5,15,C2/c,monoclinic,3D,3.8491,5.3701,-256.81712,216.23175,2346.22282,951.9164534,30592.3938,20449.12833,0.965136915,0.443455588,1.994614928,1.994614928,-280.9817067,222.22461
JVASP-22636,RbSb2,12,C2/m,monoclinic,3D,0.0501,1.0028,-199.0627633,172.80239,2845.061254,1045.986892,73623.78833,35120.41233,0.720236609,0.422535674,0.131948575,0.131948575,-168.6533533,173.03206
JVASP-22637,Cd(InSe2)2,111,P-42m,tetragonal,2D,0.8508,2.0998,-49.54051133,354.6022067,275.6551026,2811.613827,112305.7467,22414.47167,0.064049971,1.370455525,0.136138126,0.136138126,-50.918659,350.5757933
JVASP-22638,CdI2,166,R-3m,trigonal,2D,2.1863,na,-244.34369,433.4009167,2530.245205,1481.365279,41444.68667,7905.622167,0.994094187,0.822345748,0.836726626,0.836726626,-263.40795,406.32514
JVASP-22639,SiSe2,72,Ibam,orthorhombic,3D,1.7421,2.6056,-137.10625,291.19781,804.7274484,1528.015475,43770.50667,17175.888,0.312800702,0.765429307,0.591129481,0.591129481,-287.77158,325.3703633
JVASP-22640,BaI2,189,P-62m,hexagonal,3D,2.9845,na,-141.52317,395.75455,877.025936,1547.305115,43665.167,9892.3533,0.340493402,0.877282681,0.580900339,0.580900339,-134.17249,399.5730167
JVASP-22642,Cu2HgI4,111,P-42m,tetragonal,2D,0.3117,0.6013,-109.50495,355.60733,998.6050576,2153.006116,83345.27733,16802.19367,0.292614822,1.06796419,0.093549917,0.093549917,-102.1056067,335.09428
JVASP-22643,SiC,156,P3m1,trigonal,3D,2.0665,2.8484,-189.2810367,311.3217967,2427.622945,1781.911603,59189.305,17867.22467,0.811601247,0.88850989,0.478392199,0.478392199,-180.7040933,293.5759433
JVASP-22644,SiC,156,P3m1,trigonal,3D,2.273,3.0232,-176.4691203,246.17852,2224.250748,1140.843631,44874.81494,12657.50635,0.758503559,0.553755007,40.7097269,40.7097269,-202.9713067,305.70862
JVASP-22645,Cd(InSe2)2,121,I-42m,tetragonal,3D,0.6249,1.9644,-45.08871133,273.7199067,242.1419933,2642.609348,119399.08,35193.61133,0.053802934,1.136446945,0.121967251,0.121967251,-48.46139767,286.92666
JVASP-22646,CdBr2,166,R-3m,trigonal,2D,2.682,4.4812,-81.11424033,439.1270267,525.5760737,3272.310537,79875.11667,17144.499,0.152277786,1.701871963,0.284994078,0.284994078,-93.01108933,487.6822467
JVASP-22647,CdBr2,166,R-3m,trigonal,2D,2.744,na,-76.57529267,487.6555533,491.4513775,1270.69533,83699.61867,5397.2058,0.142760756,0.733506285,0.294116177,0.294116177,-88.28292333,473.13218
JVASP-22648,Ag2Se,62,Pnma,orthorhombic,3D,0.1533,na,-133.9204333,271.2006767,1081.824477,2086.182869,64727.14033,30738.30167,0.344129126,0.821852664,0.346867967,0.346867967,-176.3069367,341.87887
JVASP-22649,Rb2SnBr6,225,Fm-3m,cubic,3D,0.9829,2.213,-92.29749967,362.00442,565.6817398,2191.767348,66403.70133,16725.02233,0.182863506,1.180819929,0.332546024,0.332546024,-110.53952,381.57663
JVASP-22650,Cs2PdI6,225,Fm-3m,cubic,3D,0.1852,na,-48.166118,21.182253,317.1060585,55.67618319,136685.1233,124086.6767,0.036851037,0.005863655,4.75E-05,4.75E-05,-167.04354,192.56643
JVASP-22651,SnCl2,62,Pnma,orthorhombic,1D,3.2179,4.1834,-245.2195967,332.87741,1675.348903,936.4826099,27639.75633,8459.377567,0.749317605,0.518989164,1.179655344,1.179655344,-257.98857,412.62896
JVASP-22652,ScSbPd,216,F-43m,cubic,3D,0.125,0.0262,-287.30449,199.17185,2830.349592,2282.461169,34289.03433,57537.03567,1.074524811,0.762871554,0.016457786,0.016457786,-282.53304,209.16273
JVASP-22653,Sr3BiN,221,Pm-3m,cubic,3D,0.134,0.8975,-129.14762,165.5815,975.9828937,1587.618574,58515.294,57905.864,0.34434993,0.563593586,0.055650635,0.055650635,-141.07846,158.17614
JVASP-22654,CuI,164,P-3m1,trigonal,2D,1.6466,3.1455,-73.15023867,396.2617267,496.1682659,1560.226971,89603.887,9938.009067,0.13089735,0.844207143,0.263916863,0.263916863,-72.196113,389.8377567
JVASP-22655,RbVBr3,194,P6_3/mmc,hexagonal,3D,0.0027,na,34.70471333,34.37514,4115.68145,3987.10435,330324.472,320159.5783,0.309807928,0.307629183,3.47E-05,3.47E-05,-348.0708533,250.7718767
JVASP-22656,HgIBr,36,Cmc2_1,orthorhombic,2D,1.8893,2.9362,-152.9206033,417.2660933,1280.517477,1832.907396,55825.548,10624.63203,0.37338612,1.011331335,0.370119511,0.370119511,na,na
JVASP-22657,LiMgBi,216,F-43m,cubic,3D,0.5333,1.1056,-76.06240367,264.7778833,855.5901443,3960.017979,147885.53,56485.07967,0.143373651,1.449455041,0.077605692,0.077605692,na,na
JVASP-22659,Ag2HgI4,111,P-42m,tetragonal,3D,0.9275,1.8489,-123.9524167,337.97308,1106.001838,2396.947131,71753.91333,20966.51967,0.346443964,1.203997066,0.261627301,0.261627301,na,na
JVASP-22660,MgCl2,164,P-3m1,trigonal,2D,5.626,8.2875,-103.5456267,313.27845,763.47767,1322.415188,71087.11033,14463.0061,0.256127436,0.661974455,0.474569769,0.474569769,na,na
JVASP-22661,Rb2TeBr6,87,I4/m,tetragonal,3D,1.9625,2.4359,-219.3651,329.5598133,2338.684174,1246.463503,48574.32867,12289.845,0.938763442,0.699443622,0.471933068,0.471933068,na,na
JVASP-22662,NaN3,12,C2/m,monoclinic,3D,4.0395,5.2841,-256.78176,422.4054467,1595.6963,994.5936201,25226.88367,5763.8923,0.654297361,0.555058546,2.025548211,2.025548211,na,na
JVASP-22663,FeP4,15,C2/c,monoclinic,3D,0.1065,na,-288.1781433,327.0611533,2205.444718,1658.26183,25636.673,16370.3094,0.973099749,0.851964949,0.902348794,0.902348794,na,na
JVASP-22664,SeBr,41,Aea2,orthorhombic,2D,1.0572,1.9358,-219.6567667,364.1508767,881.3797681,2089.062592,14780.5886,15633.11033,0.427197587,1.058119667,1.676721493,1.676721493,na,na
JVASP-22665,BeI2,72,Ibam,orthorhombic,3D,4.0393,4.7704,-238.3249633,378.56619,1717.927328,1501.372132,30250.70667,10539.54397,0.783942789,0.841084945,0.99975922,0.99975922,na,na
JVASP-22666,OsCl4,65,Cmmm,orthorhombic,1D,0.0516,2.018,-35.97010437,-37.16187807,692.6797432,716.6094258,475430.4,471795.0667,0.075883628,0.078795131,6.89E-06,6.89E-06,na,na
JVASP-22667,CaBr2,58,Pnnm,orthorhombic,3D,4.5494,5.8447,-231.0513267,407.5706533,1500.277283,1126.886994,28698.978,6799.151167,0.603661528,0.633055294,1.167756467,1.167756467,na,na
JVASP-22668,K4ZnAs2,166,R-3m,trigonal,3D,0.2122,2.1494,-77.350458,394.5741333,539.2894722,867.4961876,90336.311,5329.4139,0.147357123,0.501886913,0.289320336,0.289320336,na,na
JVASP-22670,Rb2MnCl6,225,Fm-3m,cubic,3D,1.3622,1.2646,3.5763621,2.249436067,2.682448909,1.061165055,209724.1733,209717.9633,0.000626194,0.000246919,1.23E-05,1.23E-05,na,na
JVASP-22671,NaCrO2,166,R-3m,trigonal,3D,0.0071,0.0141,1.493003467,1.084920167,72.67717346,69.29233363,1553397.447,1554532.37,0.002364356,0.00246433,4.96E-06,4.96E-06,na,na
JVASP-22672,CsK2Sb,225,Fm-3m,cubic,3D,1.2071,2.0427,-134.41272,409.78629,1690.846659,3246.010464,93588.715,19330.143,0.403911341,1.729568889,0.178988733,0.178988733,na,na
JVASP-22673,BN,187,P-6m2,hexagonal,2D,4.4687,5.9877,-347.47843,377.8323967,4506.177823,2229.460266,33648.10927,15504.8858,1.76824643,1.105871933,1.674033775,1.674033775,na,na
JVASP-22674,K2NiF6,225,Fm-3m,cubic,3D,1.5348,1.0707,-388.4758,502.1117,977.5189857,385.5837143,6477.348467,1529.389133,0.565297025,0.230215007,3.113649144,3.113649144,na,na
JVASP-22675,CsSnI3,221,Pm-3m,cubic,3D,0.9162,na,-188.931,64.71989,4362.845488,480.9705669,122225.94,114826.72,0.988820017,0.101163055,0.09087068,0.09087068,na,na
JVASP-22676,HCl,36,Cmc2_1,orthorhombic,3D,5.8153,7.5757,-129.4458467,339.71093,831.126884,1185.769595,49460.35633,11100.69333,0.305932173,0.611369466,0.550393401,0.550393401,na,na
JVASP-22677,CaO2,139,I4/mmm,tetragonal,3D,2.9823,4.2213,-385.1289167,416.3152133,2788.14437,2001.421842,16780.7636,11606.98413,1.141958043,1.073298963,3.071782167,3.071782167,na,na
JVASP-22679,Rb2H6Pt,225,Fm-3m,cubic,3D,3.8891,5.2734,-273.19711,507.495,2585.234433,672.03217,34637.595,2609.3151,1.138913745,0.398221928,0.935250836,0.935250836,na,na
JVASP-22680,K2H4Pd,139,I4/mmm,tetragonal,3D,2.872,2.9078,-234.2328133,454.9983433,2219.301841,435.7434507,39886.957,2194.476767,0.81980996,0.259421327,0.927489292,0.927489292,na,na
JVASP-22681,CsCaH3,221,Pm-3m,cubic,3D,3.5471,na,-197.9057,296.91191,2085.46983,2001.283546,53246.039,22701.439,0.773389035,0.957110724,0.491581055,0.491581055,na,na
JVASP-22683,YAgSe2,1,P1,triclinic,3D,0.2966,1.2102,-205.4498133,228.0607167,1454.476239,1782.736469,32351.066,35880.36533,0.609834942,0.68922462,0.395669805,0.395669805,na,na
JVASP-22686,Na2H6Pt,225,Fm-3m,cubic,3D,3.545,4.812,-166.89149,386.14501,1848.483776,4361.227218,66366.247,29248.787,0.616424734,2.031550505,0.357421157,0.357421157,na,na
JVASP-22687,Sr2HN,166,R-3m,trigonal,3D,1.8637,2.9944,-266.3313233,532.5440133,2328.482405,534.9133952,31935.19,1827.3461,0.997507504,0.316012035,0.729526658,0.729526658,na,na
JVASP-22688,Mg2H6Ru,225,Fm-3m,cubic,3D,3.1277,3.1543,-234.12954,537.92164,3493.967615,1481.203987,63739.177,5118.9023,1.209338141,0.861401737,0.393572312,0.393572312,na,na
JVASP-22689,Ba2H6Ru,225,Fm-3m,cubic,3D,1.8541,2.152,-356.09358,478.92494,2784.629544,785.2271021,21960.344,3423.4215,1.407627207,0.463555379,1.283136669,1.283136669,na,na
JVASP-22690,Ba2H6Os,225,Fm-3m,cubic,3D,1.9379,2.4713,-361.78786,460.35634,3047.800359,1021.769841,23285.123,4821.3074,1.546834731,0.595500745,1.172294558,1.172294558,na,na
JVASP-22691,Na2H4Pt,139,I4/mmm,tetragonal,3D,2.5014,3.613,-134.3271167,420.7152933,913.2664036,946.5663172,51114.06633,5732.852867,0.334657368,0.546019897,0.57269885,0.57269885,na,na
JVASP-22693,MnO,166,R-3m,trigonal,3D,0.0026,0.0001,4.981685967,4.775705967,64.24451283,60.69063148,1867487.667,1868148.533,0.001436218,0.001347315,1.42E-06,1.42E-06,na,na
JVASP-22694,NiO,225,Fm-3m,cubic,3D,0.0109,0.0049,12.940023,13.293037,1172.642858,1239.32724,6934979.5,6950086.433,0.005877494,0.006222564,4.31E-07,4.31E-07,na,na
JVASP-22695,CoO,160,R3m,trigonal,3D,0.002,0.0009,4.429850033,4.6635583,164.0252302,182.9093688,4927487.033,4930037.033,0.001445311,0.001614482,6.61E-07,6.61E-07,na,na
JVASP-22697,SbO2F,15,C2/c,monoclinic,3D,1.458,2.2596,-136.74094,455.7115033,805.8904454,557.2002782,42910.27833,2685.856533,0.311784323,0.328378431,0.562940044,0.562940044,na,na
JVASP-22700,Rb2O,166,R-3m,trigonal,3D,1.566,4.0211,-101.9892367,501.94952,712.9157162,1472.055198,68616.75367,5842.605067,0.229247713,0.847937146,0.41264625,0.41264625,na,na
JVASP-23438,RbGaO2,227,Fd-3m,cubic,3D,2.755,4.5494,-86.785533,467.8954,548.6077546,1279.439122,72839.553,5844.1597,0.166752827,0.736205969,0.29734025,0.29734025,na,na
JVASP-23439,TeO3,52,Pnna,orthorhombic,3D,1.3762,2.1866,-118.88546,373.7482967,757.9224856,1155.445943,52447.55867,8374.6088,0.272826636,0.634043135,0.480038915,0.480038915,na,na
JVASP-22704,Ca3CdO4,65,Cmmm,orthorhombic,3D,2.818,4.6801,-103.9357567,424.1213133,657.594491,2064.719257,60848.97467,11361.82267,0.223409137,1.131094687,0.389686021,0.389686021,na,na
JVASP-22706,Li3VS4,215,P-43m,cubic,3D,1.8208,2.1221,-370.26589,360.55907,1102.887809,1860.938956,8044.5902,14314.602,0.616302665,0.990768625,2.651102966,2.651102966,na,na
JVASP-22707,CaCd3O4,65,Cmmm,orthorhombic,3D,0.6719,2.0987,-58.35941633,352.2526333,381.3326197,4226.291726,112126.8833,34472.86433,0.08959032,1.883544261,0.066709313,0.066709313,na,na
JVASP-22708,Rb4I2O,139,I4/mmm,tetragonal,3D,0.8544,2.1773,-96.94706367,316.5924467,630.9776015,2187.755716,67252.752,17661.57063,0.203755228,1.090109945,0.376901804,0.376901804,na,na
JVASP-22709,MgAs4,92,P4_12_12,tetragonal,3D,0.8396,1.3781,-282.35696,278.4717233,1552.711896,1754.893759,18214.55,22596.37,0.767443214,0.841131602,1.526966786,1.526966786,-272.3603033,285.25909
JVASP-22711,Na3VO4,121,I-42m,tetragonal,3D,3.7821,4.2884,-374.25959,515.5856067,578.9218326,382.110733,4121.0512,1493.369913,0.335774757,0.226898943,4.336158187,4.336158187,na,na
JVASP-22713,K4I2O,139,I4/mmm,tetragonal,3D,1.3857,2.774,-98.277483,335.0789767,634.1001617,1746.58463,65645.96767,12815.98859,0.207027861,0.916547669,0.375557338,0.375557338,na,na
JVASP-22714,RbCrO2,166,R-3m,trigonal,3D,0.0117,na,-3.295103333,-3.389133333,519.6225171,521.8463776,272745.2549,274039.9104,0.052793825,0.052824541,0.000117738,0.000117738,na,na
JVASP-22715,KCaBi,129,P4/nmm,tetragonal,3D,1.0976,1.8905,-84.924901,372.32762,685.9347556,1337.442698,97602.42867,9615.9252,0.162400371,0.730079377,0.214245113,0.214245113,na,na