JID,Composition,Spg.numb.,Spg.symb.,Cryst.,Dimensionality,OPT SCF gap, MBJ gap,n-Seebeck,p-Seebeck,n-powerfact,p-powerfact,n-cond,p-cond,n-ZT,p-ZT,Avg.elec.mass,Avg.hole mass,n-mp-Seeb,p-mp-Seeb
JVASP-23551,NbSiIr,62,Pnma,orthorhombic,3D,0.0037,0.0054,-3.958219833,-3.0986419,60.41197601,62.08239991,642552.2867,640850.4133,0.003042934,0.003347143,4.62E-06,4.62E-06,-2.453462867,-2.121073367
JVASP-23553,PtPb4,125,P4/nbm,tetragonal,3D,0.0017,na,-10.46862567,-10.63229863,485.3265334,507.7502072,3654571.467,3623398.8,0.005713317,0.006010075,7.72E-07,7.72E-07,-10.6326604,-10.3999756
JVASP-23554,LiSn4Ru,140,I4/mcm,tetragonal,3D,0.0039,na,-0.310159767,-1.65500698,357.0422237,355.6616733,2539974.4,2531621.033,0.004546291,0.004209551,1.25E-06,1.25E-06,2.52827,1.143876933
JVASP-23556,TiCoSi,62,Pnma,orthorhombic,3D,0.0064,0.0007,15.82682043,15.04167703,366.4580585,347.1332808,1094409.06,1097448.967,0.017888565,0.016912794,2.46E-06,2.46E-06,10.1686805,9.419265667
JVASP-23560,MnSe2,205,Pa3,cubic,3D,0.1871,na,40.539275,39.942549,822.2932208,801.6476325,500350.98,502472.11,0.075233043,0.072943622,5.04E-06,5.04E-06,-39.068427,-38.347493
JVASP-23562,TaFeP,62,Pnma,orthorhombic,3D,0.008,na,-1.841502267,-1.2118109,73.88602532,66.75071138,523972.8133,521961.7267,0.004520898,0.004272676,5.79E-06,5.79E-06,-4.207257533,-4.1341074
JVASP-23564,CoBMo,62,Pnma,orthorhombic,3D,0.0085,na,-8.291320667,-4.692173233,145.5983417,123.7416472,693074.1733,692443.07,0.006631604,0.005607295,5.32E-06,5.32E-06,-1.501705733,1.26522022
JVASP-23566,Pr2MgGe2,127,P4/mbm,tetragonal,3D,0.0055,na,15.17837067,13.60810333,993.0485979,981.8474238,1197855.533,1209026.8,0.036760177,0.035452643,2.36E-06,2.36E-06,12.94120867,11.599584
JVASP-23577,NbCoP,62,Pnma,orthorhombic,3D,0.0087,na,-32.74064823,-32.55257397,1622.813479,1594.903462,1042351.247,1032661.55,0.054178193,0.053182864,2.93E-06,2.93E-06,-33.30444733,-33.23834967
JVASP-23584,V4GaSe8,216,F-43m,cubic,3D,0.5915,na,-63.68947,-68.129214,393.7091589,438.88844,97059.99133,94555.62833,0.152015458,0.170761101,2.08E-05,2.08E-05,na,na
JVASP-23617,Sm3InS6,58,Pnnm,orthorhombic,3D,0.9985,na,-137.7155433,283.6005433,895.3821876,989.0001637,41052.16333,12202.86063,0.329349003,0.547638534,0.603231273,0.603231273,-145.7659267,300.03256
JVASP-23622,K5Pb24,217,I-43m,cubic,3D,0.0005,na,32.644659,27.507563,881.9194747,671.6192255,827569.85,887603.2567,0.043351515,0.032222497,3.17E-06,3.17E-06,na,na
JVASP-23623,NdAl3(PbO4)2,224,Pn-3m,cubic,3D,3.0333,na,-275.0658,379.44451,2200.869516,816.2529437,29088.485,5669.284,1.044200233,0.476556283,0.909362437,0.909362437,-266.64456,384.59805
JVASP-23636,Sm5Ga3,130,P4/ncc,tetragonal,3D,0.0034,na,28.32462033,28.856776,317.4878963,319.0829201,319646.6867,324620.3267,0.030922017,0.031220832,1.10E-05,1.10E-05,30.35812733,29.97783667
JVASP-23637,HfGa2Co,107,I4mm,tetragonal,3D,0.0071,na,-54.62938967,-54.10720933,833.4671889,817.1938298,226372.1133,219881.7667,0.10644824,0.104314899,1.66E-05,1.66E-05,-38.92314533,-38.73054433
JVASP-23640,Nb3(Fe10B3)2,225,Fm-3m,cubic,3D,0.0005,na,6.122684167,6.119153167,21.768317,21.7607641,580685.71,581154.35,0.00139069,0.001391583,4.95E-06,4.95E-06,na,na
JVASP-23690,MnSiIr,62,Pnma,orthorhombic,3D,0.0056,0.0013,-2.4553824,-2.5883205,28.6214235,30.09375752,1034620.36,1034077.637,0.001330157,0.001400883,3.36E-06,3.36E-06,-16.833514,-16.42374167
JVASP-23691,Nb3PbS6,193,P6_3/mcm,hexagonal,3D,0.1225,na,38.59803467,36.90633733,902.729082,836.2225259,811632.403,836225.0017,0.041476464,0.03795864,3.21E-05,3.21E-05,37.93201933,36.45600233
JVASP-23694,Ba3NaIr2O9,194,P6_3/mmc,hexagonal,3D,0.0254,na,20.91177753,19.40677707,490.840233,496.4090039,158774.7457,161130.3963,0.053652539,0.054988536,1.92E-05,1.92E-05,26.18755867,24.983125
JVASP-23695,Ca2InPt2,15,C2/c,monoclinic,3D,0.0016,na,12.8564871,14.06637117,845.0139176,904.5071696,1507248.233,1520270.767,0.023633177,0.025326309,2.05E-06,2.05E-06,15.63241893,16.9382252
JVASP-23696,MnTe2,205,Pa3,cubic,3D,0.1636,0.0572,44.375398,43.716661,708.5827199,691.5842912,359837.18,361868.81,0.083096285,0.080647711,7.03E-06,7.03E-06,-17.737042,-19.90182
JVASP-23697,LiSn4Ir,140,I4/mcm,tetragonal,3D,0.0035,na,-9.9259427,-3.623367533,1044.152557,582.8025291,1460586.833,1428817.167,0.011221351,0.006905814,2.91E-06,2.91E-06,-16.28278233,-11.3129558
JVASP-23698,Na15Pb4,220,I-43d,cubic,3D,0.1166,na,109.23553,101.03096,1877.842796,1762.556756,157373.4233,172676.8633,0.431845528,0.382135942,1.51E-05,1.51E-05,109.39093,100.89909
JVASP-23700,Ce(SiIr)2,129,P4/nmm,tetragonal,3D,0.001,na,29.66577133,29.97599967,1326.4028,1336.097908,1390731.12,1401276.923,0.032194203,0.032697051,4.27E-06,4.27E-06,28.975056,29.34668867
JVASP-23701,SrIn4Ir,51,Pmma,orthorhombic,3D,0.0069,na,10.8784259,11.66987687,261.8727938,331.969801,1950641.767,1972869.2,0.006375602,0.007976715,1.61E-06,1.61E-06,9.072658867,9.870955233
JVASP-23703,PRu2,62,Pnma,orthorhombic,3D,0.0037,0.0014,-4.333641667,-3.577201,247.5097944,243.0180178,689273.46,688974.6033,0.011860341,0.011693886,4.76E-06,4.76E-06,-1.561695,-1.125559
JVASP-23721,Sc2SiB2Ir5,127,P4/mbm,tetragonal,3D,0.0002,na,-24.19551667,-25.609774,3143.174059,3454.343057,2103428.72,2043298.273,0.036326863,0.04116566,2.63E-06,2.63E-06,-27.40246733,-28.28351133
JVASP-23722,Yb3Sb5O12,229,Im-3m,cubic,3D,0.0083,na,-18.360347,-14.3318,339.316329,197.2572929,1006567.7,960354.5333,0.012194415,0.007047821,2.97E-06,2.97E-06,-19.039573,-15.721966
JVASP-23724,Ti5Sb3,62,Pnma,orthorhombic,3D,0.0007,na,14.03671763,13.19683483,52.52632826,49.3894592,214890.7433,215832.4467,0.008383536,0.0078927,1.28E-05,1.28E-05,9.093341013,8.08551347
JVASP-23725,KFe2S3,63,Cmcm,orthorhombic,3D,0.0573,0.0109,-17.80862333,-16.24899433,1827.856522,1811.261655,293772.4167,291805.5433,0.201636782,0.196898682,6.31E-05,6.31E-05,23.58337333,25.99413067
JVASP-23726,ZrSbPd,62,Pnma,orthorhombic,3D,0.012,na,0.043906067,1.535031667,1720.664019,1730.420353,817705.78,818832.6,0.064234621,0.064791485,4.19E-06,4.19E-06,4.9765343,5.860915767
JVASP-23727,HoGeRu,62,Pnma,orthorhombic,3D,0.0065,na,15.2380357,14.441392,364.567089,345.57796,1410798.78,1417553.74,0.014302399,0.013575856,2.46E-06,2.46E-06,25.517423,24.56627533
JVASP-23728,Sm2Ge2Ru,12,C2/m,monoclinic,3D,0.0021,na,-2.926131131,-2.43661723,89.50123511,88.52925226,622683.5967,622140.3033,0.00548887,0.00550225,5.01E-06,5.01E-06,-5.463228333,-5.182436433
JVASP-23730,Hf2In5,127,P4/mbm,tetragonal,3D,0.0015,na,19.01382367,20.196573,2072.461015,2061.414056,2010304.54,2049585.253,0.020986259,0.021343761,2.79E-06,2.79E-06,21.51930233,22.28003933
JVASP-23731,LuGeRu,62,Pnma,orthorhombic,3D,0.0215,na,29.552016,28.33189233,1123.619234,1045.567991,1650048.593,1664103.907,0.046195672,0.043260905,2.32E-06,2.32E-06,29.950558,28.61999533
JVASP-23733,Yb4As6Rh7,229,Im-3m,cubic,3D,0.0306,na,26.05741533,26.31285833,667.9986597,692.8018276,983813.8233,1000628.733,0.024894703,0.025751015,2.90E-06,2.90E-06,na,na
JVASP-23734,Zr(MnGe)6,191,P6/mmm,hexagonal,3D,0.0005,na,29.776566,29.50576767,1462.786208,1439.525072,1708339.1,1713543.9,0.039420566,0.038770406,1.74E-06,1.74E-06,16.16008267,15.5861258
JVASP-23735,Tl2Ru2O7,227,Fd-3m,cubic,3D,0.004,na,16.599093,15.876372,308.9872532,283.3347087,1121429.167,1124080.067,0.013334098,0.012142311,2.31E-06,2.31E-06,16.396487,15.572723
JVASP-23737,DyGaPd,62,Pnma,orthorhombic,3D,0.0003,na,0.34902278,0.0251237,44.26308769,41.44868035,2817757.6,2818881.467,0.00053591,0.000522473,1.05E-06,1.05E-06,-1.507734421,-1.70030776
JVASP-23739,Zr2InCo2,127,P4/mbm,tetragonal,3D,0.0183,na,-1.065143067,-1.739264933,487.5573378,492.4754935,2043035.767,2039466.367,0.008236166,0.008132386,1.45E-06,1.45E-06,0.150838333,-0.519255867
JVASP-23740,BaGePt,198,P2_13,cubic,3D,0.0395,na,12.866909,13.217659,164.5550316,177.0743592,993945.81,1013553.3,0.00620577,0.006541953,2.81E-06,2.81E-06,10.378836,10.985912
JVASP-23741,YbNiSn,62,Pnma,orthorhombic,3D,0.0014,na,-8.481403987,-9.053162313,218.8796199,250.6129874,2346209.667,2335283.133,0.004541075,0.005224942,1.21E-06,1.21E-06,-7.531629233,-8.212808833
JVASP-23742,PrNiSn,62,Pnma,orthorhombic,3D,0.0056,na,-9.1274021,-8.740815333,355.4396916,360.0597556,1064316.263,1058973.813,0.009397429,0.009467039,3.22E-06,3.22E-06,-4.514954,-4.167587633
JVASP-23744,Co2P,62,Pnma,orthorhombic,3D,0.0265,na,-36.11075867,-36.427207,1022.06945,1025.458922,663035.6,659446.95,0.056443458,0.057019198,4.48E-06,4.48E-06,-26.931507,-26.965903
JVASP-23746,HoSiIr,62,Pnma,orthorhombic,3D,0.0031,0.0079,-7.241806667,-7.8371483,144.7902975,161.7843958,1650569.067,1643978.4,0.004401085,0.005016411,1.81E-06,1.81E-06,-2.336208548,-3.170724967
JVASP-23747,ZrMnSi,62,Pnma,orthorhombic,3D,0.0198,na,15.17724282,14.94904181,346.4742601,332.160359,1056278.56,1059344.367,0.014425665,0.013926206,3.77E-06,3.77E-06,-21.53778267,-21.78081333
JVASP-23748,DyCoSn,62,Pnma,orthorhombic,3D,0.0028,na,-18.66652233,-19.5665472,401.7090849,427.9330627,950642.6067,943785.0267,0.017961117,0.019304471,2.91E-06,2.91E-06,-12.39612753,-12.14288397
JVASP-23750,In3Co,136,P4_2/mnm,tetragonal,3D,0.0079,na,-23.7593602,-24.20202477,581.795192,596.7498769,917004.2467,902627.5533,0.026849861,0.028666887,3.12E-06,3.12E-06,-25.77592567,-26.69315463
JVASP-23751,TbSnPt,62,Pnma,orthorhombic,3D,0.005,na,1.691317757,2.805602317,11.31187289,19.2978565,2269019.9,2270976.233,0.000231808,0.000413624,1.59E-06,1.59E-06,1.73971876,2.498821317
JVASP-23752,ErSiRu,62,Pnma,orthorhombic,3D,0.0021,0.0038,24.92524463,24.05935693,1026.210064,988.7825813,1518915.033,1531361.05,0.036061125,0.034727234,2.22E-06,2.22E-06,28.918756,27.85172643
JVASP-23755,Mg2SiB2Ir5,127,P4/mbm,tetragonal,3D,0.0054,na,10.21153827,9.639314733,453.284771,383.9386167,2680098.5,2720718.3,0.005153174,0.004403637,1.25E-06,1.25E-06,9.450387867,8.976070533
JVASP-23756,TbGaPt,62,Pnma,orthorhombic,3D,0.0009,na,-2.128123483,-2.549824843,47.67156846,58.94161405,3121444.233,3119942.567,0.001056835,0.001330276,9.90E-07,9.90E-07,-4.116268433,-4.550235433
JVASP-23757,HfSiMo,62,Pnma,orthorhombic,3D,0.0013,0.0111,-0.170893167,0.4865314,735.3210398,746.4622895,1666524.167,1667128.867,0.016727853,0.017189557,1.77E-06,1.77E-06,-3.530091,-2.437878567
JVASP-23758,Yb2Ru2O7,227,Fd-3m,cubic,3D,0.0271,na,-3.4189228,-3.5919216,11.3116159,12.47162093,967711.8533,966649.8867,0.000468689,0.000516358,2.83E-06,2.83E-06,-6.8531428,-7.2131036
JVASP-23759,CoMoP,62,Pnma,orthorhombic,3D,0.002,0.0044,-14.986078,-14.64453467,616.5400694,590.6102216,1014205.087,1008388.67,0.023269212,0.02213996,3.18E-06,3.18E-06,-14.17215147,-13.89928127
JVASP-23760,Y(MnGe)6,191,P6/mmm,hexagonal,3D,0.001,na,14.67837367,14.4202985,692.4400852,680.6280564,2104885.033,2107127,0.019564364,0.019146796,1.47E-06,1.47E-06,na,na
JVASP-23762,YSnPt,62,Pnma,orthorhombic,3D,0.003,na,-0.186439223,0.40152135,33.20768414,29.58067846,2270711.433,2270374.167,0.000799277,0.000678001,1.56E-06,1.56E-06,2.610455127,3.150903693
JVASP-23763,SrInPt,62,Pnma,orthorhombic,3D,0.0025,na,7.374464467,7.0833836,151.9969566,145.5603563,2774058.767,2785976.8,0.002593473,0.002475966,1.08E-06,1.08E-06,6.2081262,6.150219433
JVASP-23764,Ag5(PbO3)2,162,P-31m,trigonal,3D,0.0067,0.0143,-1.047064633,-2.82860681,7.899597441,7.262866328,899935.3867,897627.09,0.000560607,0.000577601,3.76E-06,3.76E-06,na,na
JVASP-23765,NbGeIr,62,Pnma,orthorhombic,3D,0.0024,na,-2.699334967,-1.321419933,62.45384447,65.63561499,593078.1967,591857.53,0.003200593,0.003696718,5.12E-06,5.12E-06,3.564519333,4.547035233
JVASP-23767,PrZnSn,194,P6_3/mmc,hexagonal,3D,0.0086,na,-27.183533,-25.77820867,560.6039346,470.6187223,883526.63,854537.3,0.037192821,0.032737923,4.20E-06,4.20E-06,-23.70611733,-23.14994167
JVASP-23768,Ca(Cu2P)2,136,P4_2/mnm,tetragonal,3D,0.0035,na,-15.85109933,-16.2857426,829.6031933,805.1500497,1855305.5,1838985.667,0.023394528,0.023414092,1.83E-06,1.83E-06,-18.62725943,-18.35743287
JVASP-23769,TbNiSn,62,Pnma,orthorhombic,3D,0.0039,na,6.471253467,6.4367071,166.2071425,170.2007638,1763897.1,1766277.867,0.004868484,0.004931773,1.87E-06,1.87E-06,5.737755833,5.6786682
JVASP-23770,ZrVP,62,Pnma,orthorhombic,3D,0.0011,na,-3.220544,-2.760935233,413.1447073,432.7789716,1332336.767,1331547,0.011354351,0.012047533,2.20E-06,2.20E-06,-8.501821067,-7.9669425
JVASP-23771,ScSi2Rh,62,Pnma,orthorhombic,3D,0.002,na,9.628290467,10.08548913,119.0612219,152.5074628,789498.21,800145.6433,0.003860306,0.004409546,5.33E-06,5.33E-06,2.426419367,2.428984133
JVASP-23772,HfCoSn,190,P-62c,hexagonal,3D,0.0339,na,-3.548303763,-3.718517493,41.22017346,64.62985307,527268.6067,523096.7333,0.001671742,0.002606398,1.23E-05,1.23E-05,-6.9767966,-7.074982533
JVASP-23773,UB12,225,Fm-3m,cubic,3D,0.018,na,-18.828691,-19.487905,729.3143157,774.5634352,2057190.367,2039513.967,0.014959615,0.015768897,1.33E-06,1.33E-06,-8.1516484,-8.8143838
JVASP-23774,TbGePt,62,Pnma,orthorhombic,3D,0.0004,na,-0.94106865,-0.516531103,12.4997653,11.15475134,2665992,2664354.667,0.000216781,0.000195884,1.18E-06,1.18E-06,-2.524286587,-1.781702557
JVASP-23776,Mg4As6Rh7,229,Im-3m,cubic,3D,0.0269,na,13.62524867,13.50974,237.0268171,234.9301121,1276758.067,1287196.067,0.007090469,0.007007755,2.18E-06,2.18E-06,na,na
JVASP-23777,Hf5Ga3,193,P6_3/mcm,hexagonal,3D,0.0124,na,8.891449667,7.988493,322.6974441,308.1453686,1157926.983,1159450.963,0.014707549,0.013636628,2.64E-06,2.64E-06,7.546714333,6.704186667
JVASP-23779,Ba3InRu2O9,194,P6_3/mmc,hexagonal,3D,0.0154,na,-6.541076333,-6.765331333,288.1026488,319.5086475,116927.7047,117462.6193,0.048308602,0.053541463,2.48E-05,2.48E-05,na,na
JVASP-23780,U2Co2Sn,127,P4/mbm,tetragonal,3D,0.0002,0.004,-5.331828667,-5.676989667,81.40465431,84.71145623,618773.7533,618431.88,0.00622438,0.006564857,5.06E-06,5.06E-06,-3.6268369,-3.8334211
JVASP-23781,CeReB4,55,Pbam,orthorhombic,3D,0.0065,na,30.98132133,31.28906833,592.0396709,594.2384064,558638.6133,567102.4767,0.03862953,0.039207751,6.64E-06,6.64E-06,23.25018523,22.8573111
JVASP-23783,Np(Al2Fe)4,139,I4/mmm,tetragonal,3D,0.0037,0.0066,44.09527467,44.24350567,1741.726441,1748.291647,603651.4767,606081.2167,0.097911969,0.09801,5.04E-06,5.04E-06,na,na
JVASP-23784,SrRuO3,62,Pnma,orthorhombic,3D,0.0017,na,3.840193467,3.8085312,172.2570606,171.7032509,1196996.333,1197565,0.005243521,0.005217446,2.38E-06,2.38E-06,21.38764443,19.19422013
JVASP-23785,KCeSe4,125,P4/nbm,tetragonal,3D,0.0017,na,-34.79833309,-37.85153193,1263.19809,1410.54938,463257.0843,455667.0778,0.160806972,0.183046528,0.000295836,0.000295836,-27.50030933,-29.56504467
JVASP-23787,Sr3(SnIr)4,217,I-43m,cubic,3D,0.0206,na,-8.1221702,-7.421121667,55.40340644,46.11828357,839831.7633,837402.0733,0.002353501,0.001971121,3.45E-06,3.45E-06,-8.4785706,-8.1704953
JVASP-23790,Sc2FeB2Ir5,127,P4/mbm,tetragonal,3D,0.0012,na,17.98417867,18.56694673,436.7870008,426.5056287,910015.42,911719.4933,0.02413534,0.024256,4.38E-06,4.38E-06,9.049028333,9.282998333
JVASP-23791,ScSiNi,62,Pnma,orthorhombic,3D,0.0053,0.0061,11.28334363,11.8119216,174.9521726,191.3943521,2023099.727,2029765.38,0.005170587,0.005802292,2.18E-06,2.18E-06,11.18061017,11.6975587
JVASP-23793,Np(SiIr)2,129,P4/nmm,tetragonal,3D,0.0014,0.0011,-2.016610667,-1.307614267,58.29534255,60.25310452,326062.1267,325904.6467,0.005650476,0.00564605,1.09E-05,1.09E-05,1.813333567,2.079774933
JVASP-23794,HfFeP,62,Pnma,orthorhombic,3D,0.0107,0.0187,-9.351890731,-9.868728703,331.3246452,336.1363617,1073882.047,1070908.71,0.013354644,0.013581953,2.64E-06,2.64E-06,-1.8687643,-2.302317633
JVASP-23795,Ce(SiPt)2,129,P4/nmm,tetragonal,3D,0.0004,na,19.64132853,18.91821833,1771.435386,1724.290292,1659027.743,1675680.6,0.035951562,0.034651513,2.61E-06,2.61E-06,34.9060524,34.02608377
JVASP-23796,LuSiIr,62,Pnma,orthorhombic,3D,0.0175,0.0061,-4.907424033,-5.934218333,211.9538561,207.106522,1496202.463,1492440.923,0.007540295,0.00755239,2.05E-06,2.05E-06,-6.066755933,-6.7268058
JVASP-23797,Ba2MgReO6,225,Fm-3m,cubic,3D,0.0546,0.0188,-6.820727067,-8.466320567,40.34678662,62.04315756,867256.59,865574.5433,0.002282168,0.003542209,2.92E-06,2.92E-06,-14.824447,-11.704919
JVASP-23798,Ba2NaOsO6,225,Fm-3m,cubic,3D,0.0149,0.0124,17.420006,15.153813,193.2445582,147.3716008,636811.17,641756.0233,0.015268058,0.011725266,3.93E-06,3.93E-06,na,na
JVASP-23800,MoPRu,62,Pnma,orthorhombic,3D,0.0014,na,17.29268577,16.68277377,1101.038436,1064.289187,1443158.833,1449097.59,0.037702219,0.036241279,2.03E-06,2.03E-06,19.81626457,19.11229893
JVASP-23801,YbGePt,62,Pnma,orthorhombic,3D,0.001,na,-8.748631907,-8.45769177,275.5693182,268.3379604,2362714.2,2350044.833,0.005063001,0.004882248,1.40E-06,1.40E-06,-11.11327547,-11.0319045
JVASP-23802,K3Na(SO4)2,164,P-3m1,trigonal,3D,5.9256,8.7022,-137.6331367,463.1584933,943.2844747,410.2842365,50605.935,1920.4209,0.354707248,0.24370455,0.632563537,0.632563537,-128.9224233,469.2176433
JVASP-23807,Zr4Pd2O,227,Fd-3m,cubic,3D,0.006,na,23.836525,23.898008,298.1844776,301.4266514,524806.43,527786.46,0.020192322,0.020381917,5.76E-06,5.76E-06,21.211596,21.121413
JVASP-23808,ErMn12,139,I4/mmm,tetragonal,3D,0.0008,na,3.7992301,3.496131633,439.677291,433.9883733,1275210.9,1276332.233,0.015229769,0.015052338,2.11E-06,2.11E-06,na,na
JVASP-23809,HfSiCu,62,Pnma,orthorhombic,3D,0.0111,na,17.64009807,17.24089857,975.8549335,977.7896245,1880193.267,1892347.733,0.026398327,0.026184683,1.65E-06,1.65E-06,12.46912733,12.223339
JVASP-23811,HoSiRu,62,Pnma,orthorhombic,3D,0.0058,0.0058,21.07435183,20.38897133,759.8431573,743.3280062,1546950.93,1557261.653,0.025496749,0.02487981,2.03E-06,2.03E-06,24.81648293,24.0312856
JVASP-23813,ZrSiCu,62,Pnma,orthorhombic,3D,0.0054,0.0141,13.02139933,12.539296,1568.356929,1582.417056,1169531.977,1173060.7,0.054342325,0.054577455,2.51E-06,2.51E-06,9.977653667,9.533849
JVASP-23824,Sc3P2,62,Pnma,orthorhombic,3D,0.0028,na,13.68004567,13.70583443,169.4169418,168.2059695,546428.6633,549523.5633,0.010766148,0.011147459,7.88E-06,7.88E-06,8.461103467,8.380222433
JVASP-23825,YNiSn,62,Pnma,orthorhombic,3D,0.005,na,6.708810367,6.589275467,136.2492854,134.1738112,1897320.667,1900973.1,0.003796774,0.003708454,1.70E-06,1.70E-06,5.9921672,5.923298567
JVASP-23826,NiP2,205,Pa3,cubic,3D,0.0017,na,54.591521,65.132098,1700.426515,2637.140054,570568.09,621645.88,0.070685773,0.108994168,5.76E-06,5.76E-06,63.929883,76.495879
JVASP-23827,YbCoB4,55,Pbam,orthorhombic,3D,0.0063,0.0006,1.814165,2.0215346,325.6194768,329.9104145,872940.5567,874626.04,0.014357868,0.014598143,3.34E-06,3.34E-06,-0.287909967,0.2676288
JVASP-23828,Cr2CuTe4,227,Fd-3m,cubic,3D,0.0343,na,-28.228946,-26.782529,210.6305525,188.9487731,264321.2267,263415.2467,0.016975154,0.015208496,1.46E-05,1.46E-05,-1.5356737,-1.2445207
JVASP-23831,TaNiGe,62,Pnma,orthorhombic,3D,0.0017,na,-7.784342767,-7.402404333,336.9688049,351.0884779,1560706.967,1556203.767,0.00799416,0.008278986,1.99E-06,1.99E-06,-2.560969,-2.278101933
JVASP-23832,HfNbP,62,Pnma,orthorhombic,3D,0.0016,na,-13.0204216,-13.0216335,909.1114725,949.0173738,2106320.6,2091681.1,0.017045854,0.018057952,1.40E-06,1.40E-06,-11.67130437,-11.4527406
JVASP-23835,Co2NiS4,227,Fd-3m,cubic,3D,0.0386,na,-27.95762,-27.62988,899.2136356,866.220511,1150436.067,1134672.333,0.029124055,0.027954138,2.52E-06,2.52E-06,-19.392343,-19.103809
JVASP-23836,HoGeRh,62,Pnma,orthorhombic,3D,0.0102,na,-0.013278633,-0.756407833,44.78811162,52.84713212,1841651.7,1842850.633,0.001015959,0.001306593,1.70E-06,1.70E-06,-2.862059067,-3.262391067
JVASP-23839,Th3Co3Sb4,220,I-43d,cubic,3D,0.9276,na,-4.272747267,-4.622900267,4.907671328,5.732174708,268819.68,268219.5133,0.000663144,0.000770313,1.06E-05,1.06E-05,-1.3143012,-1.651187
JVASP-23840,TaNiB2,62,Pnma,orthorhombic,3D,0.015,0.0268,5.903944933,7.263072867,60.43920605,76.66400473,1635189.827,1639881.503,0.001455868,0.002086402,2.98E-06,2.98E-06,3.09190409,4.382523408
JVASP-23841,NbSiPd,62,Pnma,orthorhombic,3D,0.0108,0.0139,-22.4718127,-21.75138003,1027.067631,959.7242083,1134429.183,1123803.653,0.027928789,0.02605233,2.70E-06,2.70E-06,-22.70405273,-22.15212843