JID,Composition,Spg.numb.,Spg.symb.,Cryst.,Dimensionality,OPT SCF gap, MBJ gap,n-Seebeck,p-Seebeck,n-powerfact,p-powerfact,n-cond,p-cond,n-ZT,p-ZT,Avg.elec.mass,Avg.hole mass,n-mp-Seeb,p-mp-Seeb
JVASP-23369,CO2,205,Pa3,cubic,3D,6.9311,9.6848,-123.50679,437.77581,696.8373604,664.4487035,45682.489,3467.0327,0.270817267,0.391473359,0.541587929,0.541587929,-163.38365,490.98501
JVASP-23370,Na5OsO6,12,C2/m,monoclinic,3D,0.014,na,-37.648229,-39.16692767,513.9444137,540.7668836,310050.7467,307355.4367,0.075341977,0.08048963,8.83E-06,8.83E-06,na,na
JVASP-23372,CaIn4Pd,63,Cmcm,orthorhombic,3D,0.0018,na,5.135413473,4.784424553,185.6113018,173.8822774,4880204.667,4905097.433,0.001498644,0.0013983,5.97E-07,5.97E-07,3.6458403,3.1445028
JVASP-23374,Cr2AgTe4,227,Fd-3m,cubic,3D,0.0078,na,-18.705688,-17.290043,109.533953,93.31392481,313041.12,312143.51,0.007837511,0.006661376,1.14E-05,1.14E-05,14.647365,15.886973
JVASP-23375,Te2Au,28,Pma2,orthorhombic,3D,0.0048,na,3.417479667,3.219512,2047.222298,1790.99104,788473.4633,783439.5567,0.085993056,0.07700209,4.03E-06,4.03E-06,3.909434333,5.144304667
JVASP-23376,NbCrP,62,Pnma,orthorhombic,3D,0.0002,na,10.96261633,10.86369567,545.032837,537.9121673,1438619.333,1442183.4,0.015089235,0.014886541,1.99E-06,1.99E-06,-0.24945194,0.186091557
JVASP-23377,ZrMnP,62,Pnma,orthorhombic,3D,0.0062,na,-8.104555,-6.4965001,919.2131865,920.9519758,505735.31,504865.28,0.045445488,0.04532981,7.20E-06,7.20E-06,-2.071403533,-1.960891467
JVASP-23378,LiCa2Si3,58,Pnnm,orthorhombic,3D,0.0012,na,8.5123284,8.645578667,283.5884805,245.4381535,1178556.42,1195612.933,0.015559156,0.012756627,1.14E-05,1.14E-05,8.1105244,8.5648081
JVASP-23379,Th2S3,62,Pnma,orthorhombic,3D,0.0066,na,-6.888826167,-8.698758967,295.2847475,344.6016274,611106.2667,608353.6867,0.022846239,0.026844079,4.63E-06,4.63E-06,-5.8506695,-7.616744867
JVASP-23382,Ce2C3,220,I-43d,cubic,3D,0.0065,na,0.206312093,-0.048850504,0.015260461,0.000854465,358524.05,358060.31,1.53E-06,8.53E-08,7.72E-06,7.72E-06,0.59075669,0.097226837
JVASP-23384,HfMnSi,62,Pnma,orthorhombic,3D,0.0106,na,0.589083967,0.501204233,364.4321943,351.5890132,971390.52,973176.1733,0.01406954,0.013652397,4.07E-06,4.07E-06,-20.09530797,-20.25918123
JVASP-23385,NdZnSn,194,P6_3/mmc,hexagonal,3D,0.0148,na,-23.680403,-21.75932167,467.7507556,373.5461964,905749.5567,880390.4167,0.028415119,0.024120112,3.91E-06,3.91E-06,-22.345997,-21.58115667
JVASP-23391,UGeIr,62,Pnma,orthorhombic,3D,0.0036,na,13.7892741,13.73481207,114.1955043,112.7858997,283953.27,284410.0333,0.013886565,0.013649347,1.12E-05,1.12E-05,1.907981007,1.919408587
JVASP-23393,Mg4P6Rh7,229,Im-3m,cubic,3D,0.0061,na,33.58598767,33.810498,1254.215006,1300.774963,1111874.433,1137886.733,0.040967154,0.04233248,2.57E-06,2.57E-06,na,na
JVASP-23395,PdS,84,P4_2/m,tetragonal,3D,0.0275,na,-87.51616367,57.20663733,475.4415847,118.8396571,61602.809,35469.27933,0.12661982,0.024332364,0.000276746,0.000276746,-80.09288267,48.34042333
JVASP-23396,TiSiCu,62,Pnma,orthorhombic,3D,0.0032,na,16.0402,16.09217867,1191.538931,1212.562049,996412.4833,997555.5833,0.052173247,0.052923641,3.39E-06,3.39E-06,6.370152533,6.6513257
JVASP-23399,DySiIr,62,Pnma,orthorhombic,3D,0.0038,na,-7.367546067,-7.890247267,157.118672,175.8641919,1664754.867,1658930.8,0.004724082,0.005399073,1.82E-06,1.82E-06,-2.460052467,-3.195630233
JVASP-23405,TmSiRu,62,Pnma,orthorhombic,3D,0.0041,0.0023,23.296819,22.32387553,826.656308,776.8484558,1611089.757,1623161.86,0.029706267,0.028060719,2.29E-06,2.29E-06,32.31347933,30.95135633
JVASP-23406,U(PS3)2,84,P4_2/m,tetragonal,1D,0.0011,na,22.85510733,20.48553833,212.3374996,205.9217917,69350.298,69833.12767,0.087783034,0.085176472,4.28E-05,4.28E-05,-104.3043133,-106.8814333
JVASP-23407,TiP2,62,Pnma,orthorhombic,3D,0.0031,na,-25.2431559,-22.23279533,822.0652906,752.73566,843979.3567,830386.0933,0.036120332,0.033885354,4.43E-06,4.43E-06,-25.52236233,-22.968525
JVASP-23408,MnNbP,62,Pnma,orthorhombic,3D,0.0156,0.0022,24.49123997,24.39807093,860.5048257,863.1400236,1064214.143,1069141.183,0.036037755,0.036355743,2.95E-06,2.95E-06,25.31647,25.04951
JVASP-23410,Ce2CoSi3,191,P6/mmm,hexagonal,3D,0.005,na,49.254897,48.89827733,1143.592583,1143.830272,553545.5067,560125.9133,0.092758593,0.092405869,7.21E-06,7.21E-06,52.70483167,52.26831533
JVASP-23412,CaInAu,62,Pnma,orthorhombic,3D,0.0039,na,0.050326633,0.0987768,65.27027003,76.24804929,2354018.9,2355194.867,0.00095799,0.001096749,1.29E-06,1.29E-06,-2.332246,-2.409596533
JVASP-23415,TbSiIr,62,Pnma,orthorhombic,3D,0.0015,na,-7.735488333,-8.263661533,176.5218267,193.8246147,1786730.867,1780799.1,0.005130813,0.005728675,1.72E-06,1.72E-06,-3.1895471,-3.8265014
JVASP-23420,Ho(BC)2,127,P4/mbm,tetragonal,3D,0.0065,na,-11.10059867,-11.36591933,1104.369806,1139.917031,5577659.8,5530185.467,0.008679671,0.00909399,5.08E-07,5.08E-07,-10.76440993,-11.15921653
JVASP-23421,SmFeB4,55,Pbam,orthorhombic,3D,0.0072,na,-2.631425967,-2.345134567,404.3457679,407.4183737,888958.2133,887189.25,0.015309482,0.015426923,3.31E-06,3.31E-06,-9.646320333,-9.511782
JVASP-23424,TaSiRh,62,Pnma,orthorhombic,3D,0.0027,0.0167,5.041302267,6.699392333,21.44548814,29.16882917,568442.9967,573163.1333,0.001464348,0.001989317,5.21E-06,5.21E-06,12.14571653,13.93323203
JVASP-23427,As2Pd,205,Pa3,cubic,3D,0.0035,na,15.350078,19.349755,316.4936676,513.4365037,1343209.8,1371310.5,0.007607807,0.012161213,2.19E-06,2.19E-06,8.6945344,12.463166
JVASP-23428,PuB4,127,P4/mbm,tetragonal,3D,0.0052,na,34.632118,35.00744933,312.1253773,320.1766433,274319.75,274990.98,0.034107891,0.034658329,1.31E-05,1.31E-05,-1.922240667,-1.865206
JVASP-23429,U4Si6Tc7,229,Im-3m,cubic,3D,0.0046,na,28.42523033,27.909915,873.622336,847.6516948,1081224.167,1088179.167,0.034497806,0.033318073,2.54E-06,2.54E-06,na,na
JVASP-23431,NdNiSn,62,Pnma,orthorhombic,3D,0.0016,na,-2.749647633,-2.463082,205.9098714,214.4531275,1207031.77,1204433.69,0.006018347,0.006238931,2.83E-06,2.83E-06,8.991453533,9.547067433
JVASP-23432,Mg2BiPO6,62,Pnma,orthorhombic,3D,3.7192,na,-238.3481333,386.42075,1634.42701,1450.154406,26017.08712,13653.13427,0.700019985,0.712640772,11.46547532,11.46547532,na,na
JVASP-23436,Li(MnS2)2,227,Fd-3m,cubic,3D,0.0048,0.0012,-35.99654467,-36.59267467,225.7840057,232.2519464,174249.48,173448.68,0.045963764,0.047190178,1.40E-05,1.40E-05,na,na
JVASP-23441,PrSnRu,62,Pnma,orthorhombic,3D,0.0069,na,-4.993654333,-4.852291567,25.92584094,24.38617235,1145262.797,1141905.343,0.001119448,0.001017523,2.93E-06,2.93E-06,-4.023038867,-3.713720267
JVASP-23442,Si3Rh5,55,Pbam,orthorhombic,3D,0.0184,na,3.016594,3.280858,685.1206525,640.752354,1302513.097,1306853.69,0.022028334,0.020439093,2.57E-06,2.57E-06,10.69958367,10.666017
JVASP-23443,ScSiRh,62,Pnma,orthorhombic,3D,0.006,0.019,-0.5174722,-1.2650493,109.3198528,103.1984127,1413435.027,1412567.077,0.003624951,0.003483315,2.15E-06,2.15E-06,0.530664233,0.005939767
JVASP-23444,BPd3,62,Pnma,orthorhombic,3D,0.0014,na,-3.742494067,-4.183062567,150.691683,163.5403783,3296636.7,3288464.433,0.001730422,0.001853208,9.37E-07,9.37E-07,-5.8823571,-6.302522867
JVASP-23445,Sc2VB2Ir5,127,P4/mbm,tetragonal,3D,0.0072,na,-15.87902803,-16.0474001,245.3032726,261.3762356,2800082.347,2792975.567,0.010807572,0.01091734,3.73E-06,3.73E-06,-35.461047,-35.63902933
JVASP-23446,CuSO4,62,Pnma,orthorhombic,3D,0.0042,na,-32.00169933,-28.715436,375.8719003,337.0404828,169510.3367,167623.99,0.053185152,0.048528242,2.58E-05,2.58E-05,-27.55492567,-25.29698827
JVASP-23447,YbSbPd,62,Pnma,orthorhombic,3D,0.0084,na,0.8106741,0.868961833,6.245849794,8.812376361,2376514.333,2377035.367,0.000104439,0.000160115,1.28E-06,1.28E-06,-1.50000393,-1.644556813
JVASP-23448,U(Al5Fe)2,63,Cmcm,orthorhombic,3D,0.0033,na,21.6699341,21.09752977,287.4943201,284.7958762,223212.5667,224402.6367,0.037362506,0.037077297,1.30E-05,1.30E-05,-12.125431,-11.86639033
JVASP-23450,DySiPt,62,Pnma,orthorhombic,3D,0.0028,na,-0.548492067,-0.1693775,30.26678624,21.67268573,2497122.567,2499230.333,0.000567684,0.000401815,1.55E-06,1.55E-06,1.597604183,1.82239776
JVASP-23457,TbSiRu,62,Pnma,orthorhombic,3D,0.0061,na,17.22322173,16.91375432,470.1116513,474.4468957,1556126.527,1563841.117,0.0166948,0.016811118,2.14E-06,2.14E-06,14.75735066,14.32879136
JVASP-23458,V2C,60,Pbcn,orthorhombic,3D,0.0132,0.0372,17.22532957,17.75696713,352.9490182,364.1898567,783956.6433,787764.4467,0.017381968,0.017784066,3.69E-06,3.69E-06,24.08494733,24.533504
JVASP-23462,Li2BPd3,212,P4_332,cubic,3D,0.0086,na,-6.6689024,-5.9101596,58.69735414,45.96850145,1319805.1,1316018.3,0.001632957,0.00128135,2.26E-06,2.26E-06,-7.7255242,-8.0374671
JVASP-23465,Ca2In,62,Pnma,orthorhombic,3D,0.0043,na,2.261291333,4.380603,174.2388463,189.7581055,563672.3567,565874.6,0.010272768,0.010358895,6.54E-06,6.54E-06,11.44305047,13.92771387
JVASP-23468,Mg(FeGe)6,191,P6/mmm,hexagonal,3D,0.0109,na,-3.018493667,-2.989342733,277.0574725,279.2395258,1701983.87,1700353.333,0.003779867,0.003824121,2.25E-06,2.25E-06,6.343272033,6.530954267
JVASP-23470,Nb3B2,127,P4/mbm,tetragonal,3D,0.0184,na,9.520782767,9.798262833,313.0508983,334.6609322,3610541.533,3631226.067,0.003600007,0.003810543,8.34E-07,8.34E-07,9.984115533,10.0093492
JVASP-23471,U2SnRu2,127,P4/mbm,tetragonal,3D,0.0007,na,18.84443367,21.27291433,164.8621448,210.6768669,463857.39,465781.8667,0.008909874,0.011366229,8.57E-06,8.57E-06,12.59491917,12.74813407
JVASP-23474,ErSiIr,62,Pnma,orthorhombic,3D,0.0083,na,-3.886089333,-4.816388967,28.27824388,37.09165785,1636124.567,1632333.167,0.001010111,0.001322827,1.89E-06,1.89E-06,-3.22550383,-4.122327083
JVASP-23477,SmCoGe,62,Pnma,orthorhombic,3D,0.007,na,-12.2267084,-12.05628183,222.932049,211.099912,570357.2733,566728.3867,0.011301939,0.010773452,5.11E-06,5.11E-06,-15.9137787,-15.42976557
JVASP-23478,Ta3PbS6,193,P6_3/mcm,hexagonal,3D,0.0372,0.0219,33.741434,32.160486,793.4270362,731.4829758,930585.879,958442.73,0.034185276,0.031180842,2.08E-05,2.08E-05,31.36213567,30.02899067
JVASP-23479,Ca2InPd2,15,C2/c,monoclinic,3D,0.0001,na,0.214637133,2.2016954,340.7325987,321.2868931,1668852.233,1667007.8,0.006914491,0.007092193,1.94E-06,1.94E-06,0.990720833,4.0316568
JVASP-23481,ZrIn2,141,I4_1/amd,tetragonal,3D,0.0028,na,12.21646,11.13175923,438.8038021,392.4254394,2203321.533,2223663.567,0.007881196,0.006931677,1.26E-06,1.26E-06,10.5132337,9.992812433
JVASP-23483,Cr4InCuSe8,216,F-43m,cubic,3D,0.0369,0.0929,-332.97283,256.33596,1067.945585,106.54826,9632.333933,1621.5386,0.581119859,0.053399335,0.21928607,0.21928607,-68.75423,-20.711877
JVASP-23485,ErGePd2,62,Pnma,orthorhombic,3D,0.0023,na,-9.137818167,-8.317675233,627.9028227,615.5780678,938426.74,932919.1433,0.027592102,0.027167419,3.25E-06,3.25E-06,-5.7866157,-4.827206967
JVASP-23489,Nd(NiAs)2,129,P4/nmm,tetragonal,3D,0.0019,na,-9.696353933,-10.36446293,377.70203,393.7862931,2794150.533,2780581.367,0.008890189,0.009269535,1.10E-06,1.10E-06,-12.69725933,-13.55524533
JVASP-23490,CaIn4Ir,51,Pmma,orthorhombic,3D,0.0014,na,8.281276933,8.2889083,148.1400512,158.3213474,2187808.267,2209985.9,0.003032237,0.003314465,1.40E-06,1.40E-06,3.517475467,3.58971237
JVASP-23491,Ba2CaIrO6,225,Fm-3m,cubic,3D,3.2692,0.0542,-45.21618067,-45.648088,1026.727957,1033.364783,502189.51,495916.4033,0.077902878,0.077591495,5.18E-06,5.18E-06,na,na
JVASP-23492,Sr2InPd2,15,C2/c,monoclinic,3D,0.0002,na,-5.563546767,-4.5263111,1179.848085,1170.47556,1231486.577,1217008.073,0.028192781,0.028431183,2.58E-06,2.58E-06,-8.080097667,-6.686218467
JVASP-23495,Ti5Sn3,193,P6_3/mcm,hexagonal,3D,0.0007,na,-4.204341133,-5.028528533,44.04259952,39.25926328,789100.8733,787132.3867,0.00116006,0.001204034,4.08E-06,4.08E-06,-0.82585725,-1.491270517
JVASP-23497,Fe2W,194,P6_3/mmc,hexagonal,3D,0.0024,0.0003,-20.10469467,-20.33708133,823.9516094,835.5020687,1759564.4,1755644.433,0.022968939,0.023231275,1.58E-06,1.58E-06,-19.84757067,-20.08746933
JVASP-23498,Dy2InPd2,127,P4/mbm,tetragonal,3D,0.0013,na,1.007849,1.9712,511.2451357,540.9085008,2320066.033,2318730.667,0.006849155,0.007588926,1.44E-06,1.44E-06,1.421806667,2.295427
JVASP-23500,VSn2,70,Fddd,orthorhombic,3D,0.0021,na,20.86632967,20.84148233,593.4614716,592.1537335,1214840.173,1226013.367,0.017754195,0.017648568,2.45E-06,2.45E-06,12.38675577,11.5278063
JVASP-23501,TmGeRu,62,Pnma,orthorhombic,3D,0.007,na,22.66903963,21.64309297,684.2564118,642.1565304,1477356.94,1486947.837,0.029613234,0.027916752,2.44E-06,2.44E-06,31.50677433,30.176971
JVASP-23502,ZrFeP,62,Pnma,orthorhombic,3D,0.0214,0.0116,-3.9555728,-4.3835048,292.3484378,293.6028949,1056264.55,1054802.95,0.0120504,0.012141373,2.79E-06,2.79E-06,2.468820667,2.084622167
JVASP-23503,UGa3Pd2,191,P6/mmm,hexagonal,3D,0.0013,na,41.93170633,42.12394333,1876.894727,1906.258946,1065405.333,1072563.333,0.062190496,0.062763351,2.78E-06,2.78E-06,na,na
JVASP-23504,NiSe2,205,Pa3,cubic,3D,0.0061,na,-38.954114,-38.660159,2560.821411,2478.599143,1687612.1,1658360.8,0.055559403,0.053448911,1.69E-06,1.69E-06,-27.796268,-26.799677
JVASP-23505,OsS2,205,Pa3,cubic,3D,0.0897,na,-58.535781,35.889962,330.69108,84.16348394,96511.629,65339.786,0.072329159,0.014356901,7.66E-05,7.66E-05,-61.751762,47.497775
JVASP-23506,Ce(BC)2,127,P4/mbm,tetragonal,3D,0.0013,0.0001,34.74309167,34.85366433,1421.545335,1436.82861,1234538.25,1242108.187,0.045714403,0.045999748,2.72E-06,2.72E-06,47.531948,47.654327
JVASP-23507,V5Ge3,193,P6_3/mcm,hexagonal,3D,0.0067,na,-17.30119843,-16.35712553,194.9247154,180.3864281,473603.6767,472309.35,0.013538596,0.012510055,7.62E-06,7.62E-06,-20.16278713,-19.40845217
JVASP-23508,U2Fe3Ge,194,P6_3/mmc,hexagonal,3D,0.0009,na,2.210147333,2.221419667,533.8461681,599.4393465,1760009.113,1754554.053,0.00990557,0.011068232,4.80E-06,4.80E-06,6.427530667,6.460221667
JVASP-23509,NbNiP,62,Pnma,orthorhombic,3D,0.0059,0.0195,3.001347417,11.3801049,246.6898909,360.0723816,692159.1267,696908.87,0.007682369,0.010693541,5.77E-06,5.77E-06,-0.376505733,5.221636067
JVASP-23510,Cr3C2,62,Pnma,orthorhombic,3D,0.001,0.007,-4.898102433,-5.151001833,322.1091636,317.0761727,1134198.02,1132466.9,0.008855821,0.008653135,3.21E-06,3.21E-06,-5.472393933,-5.642661633
JVASP-23511,CaRuO3,62,Pnma,orthorhombic,3D,0.005,na,-6.067824333,-6.286698667,333.514854,342.231941,1100194.767,1099039.733,0.012698671,0.013044557,2.58E-06,2.58E-06,-3.879539867,-4.185517433
JVASP-23512,NbNiP2,62,Pnma,orthorhombic,3D,0.0006,na,-3.361313733,-3.190780267,684.3546878,692.3364825,1310751,1309363.833,0.019840498,0.020222766,2.22E-06,2.22E-06,-4.214205667,-4.0555717
JVASP-23513,MnSiNi,62,Pnma,orthorhombic,3D,0.0058,0.0022,-2.218183186,-2.202237034,86.1682687,87.42664659,840622.37,840357.82,0.003712409,0.003755699,3.81E-06,3.81E-06,0.670551933,2.094489933
JVASP-23517,YZnSn,194,P6_3/mmc,hexagonal,3D,0.0202,na,-18.1730652,-16.30781413,334.6496183,269.7905301,978819.85,956211.47,0.016500763,0.014549467,3.23E-06,3.23E-06,-17.12546007,-15.3040795
JVASP-23520,Ti3SnC2,194,P6_3/mmc,hexagonal,3D,0.0017,na,-9.595902833,-10.04826093,327.2028975,368.0506762,2943883.133,2928484.467,0.005683089,0.006473952,9.54E-07,9.54E-07,-7.5272012,-7.874792733
JVASP-23521,Tb(FeP3)4,204,Im3,cubic,3D,0.2772,na,8.041479267,6.876595,27.16097021,19.95004131,420023.3033,421887.74,0.002503642,0.001836811,6.18E-06,6.18E-06,na,na
JVASP-23522,NdGeRh,62,Pnma,orthorhombic,3D,0.0044,na,1.950060667,1.457160467,50.54568299,43.76229685,1404306.467,1406288.083,0.001778303,0.00158703,2.27E-06,2.27E-06,-1.885765347,-2.1825085
JVASP-23523,Tb2InPd2,127,P4/mbm,tetragonal,3D,0.004,na,6.028081667,6.379188,879.8184065,932.4482615,2884164.833,2894619.7,0.011685056,0.012442473,9.89E-07,9.89E-07,1.596482,2.406734333
JVASP-23524,U(FeP3)4,204,Im3,cubic,3D,0.0038,na,-96.096584,-98.43081233,970.8231257,1001.099669,105129.4067,103327.3233,0.371543977,0.38632179,2.14E-05,2.14E-05,-76.04193,-78.208654
JVASP-23525,TaMnP,62,Pnma,orthorhombic,3D,0.0053,0.0045,24.68541093,24.58840123,1156.150158,1172.14415,1067025.77,1072428.473,0.046820758,0.047620463,2.93E-06,2.93E-06,na,na
JVASP-23526,YSiRu,62,Pnma,orthorhombic,3D,0.0027,na,24.7477113,23.88295823,959.0051865,929.4011027,1495633.653,1506864.513,0.035157297,0.034028318,2.12E-06,2.12E-06,30.944692,29.83031343
JVASP-23527,HoGeIr,62,Pnma,orthorhombic,3D,0.005,na,-10.4147829,-11.19256647,240.7817114,258.7876841,1685970.933,1674591.4,0.007298093,0.007914996,1.72E-06,1.72E-06,-8.616492263,-9.49195393
JVASP-23528,ScNiB4,55,Pbam,orthorhombic,3D,0.0014,0.0055,1.275376167,1.307971167,63.41475208,79.4826407,1696192.583,1694607.273,0.002077418,0.0025544,2.12E-06,2.12E-06,-4.2965912,-4.2940101
JVASP-23529,U(SiPt)2,129,P4/nmm,tetragonal,3D,0.0082,0.0001,79.86423167,80.041029,2625.857513,2654.562945,326609.2233,329362.31,0.197575564,0.19961743,1.44E-05,1.44E-05,24.20201033,24.752242
JVASP-23530,Hf5Sn3,193,P6_3/mcm,hexagonal,3D,0.0039,na,-3.348999967,-4.274967367,241.962365,219.5174274,1322220.717,1316042.367,0.00444766,0.003869724,2.45E-06,2.45E-06,-5.025544733,-6.077015067
JVASP-23532,SrIn4Pt,63,Cmcm,orthorhombic,3D,0.0018,na,-4.310695233,-4.309255,338.4074734,334.030308,3780047.5,3771294.033,0.004131973,0.004131308,8.10E-07,8.10E-07,-3.559617333,-3.725388733
JVASP-23534,K(InAu2)2,140,I4/mcm,tetragonal,3D,0.0003,na,-6.76484811,-5.007197433,2058.513827,2093.674189,3786741.367,3731511.733,0.01362552,0.014487127,9.22E-07,9.22E-07,-3.288530733,-3.174380333
JVASP-23535,Ce3Ni2B2N3,139,I4/mmm,tetragonal,3D,0.0074,na,33.63738267,33.36020033,1557.596708,1547.885789,1408447.267,1416770.267,0.047672951,0.0469148,2.26E-06,2.26E-06,na,na
JVASP-23536,TbCoGe,62,Pnma,orthorhombic,3D,0.0061,na,-11.4357561,-11.86772363,198.3350358,208.3341634,1191450.103,1186860.093,0.007940645,0.008448312,2.38E-06,2.38E-06,-10.77654797,-11.19762803
JVASP-23537,ErGeIr,62,Pnma,orthorhombic,3D,0.0039,na,-11.01357003,-11.8172871,309.165285,318.9938489,1603409.5,1591659.567,0.009953096,0.010418106,1.82E-06,1.82E-06,-10.2243544,-11.11738467
JVASP-23538,TmNiGe,62,Pnma,orthorhombic,3D,0.0055,na,1.486998867,1.4800339,57.36874199,56.98700702,2265465.9,2265678.833,0.00109322,0.001080723,1.40E-06,1.40E-06,3.753754447,3.88962831
JVASP-23539,SrGePt,198,P2_13,cubic,3D,0.0012,na,18.648406,18.816675,458.4027467,481.3301483,1318146.8,1359431.4,0.013313537,0.013625618,2.11E-06,2.11E-06,15.154703,15.361605
JVASP-23540,PdSe,84,P4_2/m,tetragonal,3D,0.0572,na,-22.9227726,21.67020487,139.0326351,174.6339968,129261.3,126604.51,0.020010637,0.02301485,2.97E-05,2.97E-05,-24.8778412,25.1649954
JVASP-23542,KPb2,194,P6_3/mmc,hexagonal,3D,0.0045,na,-2.0727924,-2.498073,51.57998192,69.03508274,3412823.733,3401473.467,0.000613169,0.000820246,8.29E-07,8.29E-07,-4.463049067,-5.594988067
JVASP-23543,U2Co3Si5,72,Ibam,orthorhombic,3D,0.0002,na,44.42244467,44.126107,679.8349937,676.7082289,283068.6833,284571.8733,0.078376923,0.077473559,1.03E-05,1.03E-05,51.03649033,50.97269633
JVASP-23544,Na3(GePt)4,217,I-43m,cubic,3D,0.0317,na,3.9705348,3.232871867,40.41025322,26.86844222,2563265.3,2570783.5,0.000664741,0.000437391,1.09E-06,1.09E-06,na,na
JVASP-23545,Tm2InPd2,127,P4/mbm,tetragonal,3D,0.0004,na,7.067959,7.764672333,1353.908809,1500.767837,3285704.633,3297084.567,0.015441265,0.017269116,9.11E-07,9.11E-07,-0.577021467,0.661009333
JVASP-23546,URhS3,62,Pnma,orthorhombic,3D,0.0014,0.0015,15.85423303,15.2719468,80.95944868,76.01467192,159682.67,160050.8367,0.017941052,0.016879432,1.69E-05,1.69E-05,-1.963263897,-2.032623007
JVASP-23548,Sm2InGe2,127,P4/mbm,tetragonal,3D,0.0025,na,-9.448452633,-9.954837667,154.3908154,171.9281632,1959549.5,1944086.333,0.003851726,0.004103442,1.63E-06,1.63E-06,3.009891133,2.619847783
JVASP-23549,U3TiSb5,193,P6_3/mcm,hexagonal,3D,0.0004,na,54.754281,54.437826,753.9632016,750.0317323,281992.0433,283567.9133,0.104741587,0.103766378,1.20E-05,1.20E-05,33.50003,34.30778767
JVASP-23550,BaPPt,198,P2_13,cubic,3D,0.0373,0.0316,-12.852666,-11.891222,88.57398458,75.39833129,536191.27,533222.86,0.005661367,0.005012481,5.30E-06,5.30E-06,0.87721945,3.5731648