JID,Composition,Spg.numb.,Spg.symb.,Cryst.,Dimensionality,OPT SCF gap, MBJ gap,n-Seebeck,p-Seebeck,n-powerfact,p-powerfact,n-cond,p-cond,n-ZT,p-ZT,Avg.elec.mass,Avg.hole mass,n-mp-Seeb,p-mp-Seeb
JVASP-12128,Sr2FeBrO3,129,P4/nmm,tetragonal,3D,0.0004,na,-54.17473227,-55.65336113,3.325966052,5.810460094,632783.0715,634447.3226,0.001755423,0.001777757,0.004128574,0.004128574,na,na
JVASP-12129,ZnCl2,137,P4_2/nmc,tetragonal,2D,3.7582,6.0306,-97.26744533,405.83297,594.7025211,1366.405615,61498.18067,8038.1461,0.198950698,0.755502557,0.357533444,0.357533444,-119.4794633,455.1997733
JVASP-12130,TiCl3,162,P-31m,trigonal,2D,0.0063,0.0001,14.115879,11.89914,140.971345,125.33549,139264.103,140920.314,0.02981101,0.026686327,3.80E-05,3.80E-05,-23.44017423,-25.57183977
JVASP-12131,HfIN,166,R-3m,trigonal,2D,0.9902,na,-255.42022,240.2218333,2074.705821,1968.743771,28895.29127,29814.93737,0.89812235,0.814124342,4.451269831,4.451269831,-248.9250433,257.92887
JVASP-12132,MnSbSe2Br,62,Pnma,orthorhombic,2D,0.5926,na,-318.55171,198.12809,1031.839744,1128.667751,9936.2543,24361.05833,0.582758987,0.473983473,1.598778975,1.598778975,-262.78739,206.2285767
JVASP-12133,Te2Au,12,C2/m,monoclinic,3D,0.0012,na,-0.14336099,0.417751,66.71239721,87.66206909,10249338.7,10253499.73,0.000274263,0.000346525,2.84E-07,2.84E-07,na,na
JVASP-12134,HfGeTe4,36,Cmc2_1,orthorhombic,2D,0.0309,na,-199.0677733,185.8160433,1925.150737,1388.902063,46665.14167,38597.875,0.72386372,0.555218341,0.154892404,0.154892404,-197.54804,194.8842833
JVASP-12135,TbCl,166,R-3m,trigonal,2D,0.0185,na,2.975259667,1.880976467,60.61222074,45.69483157,246961.626,245764.391,0.013725025,0.009809081,1.78E-05,1.78E-05,73.1142045,73.48312183
JVASP-12136,ZrNCl,166,R-3m,trigonal,2D,1.7699,na,-260.9411933,201.1403833,2185.793718,819.2546732,32398.8819,19350.43067,0.905399327,0.399311015,385.84069,385.84069,-250.02421,227.9399333
JVASP-12138,CuBi(PSe3)2,163,P-31c,trigonal,2D,0.1617,na,-103.07913,326.30357,771.0407536,1120.812698,73024.84933,10523.2234,0.190373416,0.637051075,0.236431038,0.236431038,-98.709234,358.91266
JVASP-12139,ZrTiSe4,10,P2/m,monoclinic,2D,0.0042,na,23.9087841,56.59267267,547.2142977,870.4135282,229400.1967,250289.3167,0.077899803,0.112657685,2.03E-05,2.03E-05,-42.91672847,-24.48367033
JVASP-12141,Ba(BSe3)2,64,Cmce,orthorhombic,3D,1.6257,na,-287.9440667,192.2041167,1753.98247,1159.699456,20218.69633,28232.53833,0.835964086,0.486642517,1.664354527,1.664354527,na,na
JVASP-12142,FeI2,164,P-3m1,trigonal,2D,0.0038,0.0003,8.006076333,7.522740667,842.145126,818.3344694,228522.8947,233964.572,0.11620292,0.111459472,8.85E-05,8.85E-05,na,na
JVASP-12143,ZrI2,11,P2_1/m,monoclinic,2D,0.0219,na,-4.949528,150.3896817,1925.300404,823.6604504,27523.6621,30252.74567,0.516393934,0.345542611,0.002275515,0.002275515,na,na
JVASP-12144,Sb2TeSe2,166,R-3m,trigonal,2D,0.0429,na,-217.78047,221.6760467,3700.008206,3915.523651,84570.064,82174.91533,0.959395331,1.183909895,0.151798454,0.151798454,na,na
JVASP-12148,CoSe,129,P4/nmm,tetragonal,2D,0.0006,na,-25.9838378,-26.218042,2356.423403,2336.957264,2275253.713,2272259.48,0.096087417,0.096149953,1.67E-06,1.67E-06,na,na
JVASP-12149,NbFeTe2,53,Pmna,orthorhombic,2D,0.0011,na,-4.881812767,-6.0752709,6.065291569,12.56975319,459164.3233,457547.1167,0.000904064,0.001320728,1.24E-05,1.24E-05,na,na
JVASP-12150,ScHO2,9,Cc,monoclinic,2D,4.2603,5.3239,-470.60049,397.5452133,1045.960453,1635.799268,4795.2686,10594.9353,0.61184994,0.86411815,5.261114508,5.261114508,na,na
JVASP-12151,Ni(HO)2,166,R-3m,trigonal,2D,0.075,na,-189.8909067,378.9349733,1270.519621,1213.299311,35314.95667,8438.280493,0.467204324,0.647686139,0.6132427,0.6132427,na,na
JVASP-12153,YCBr,12,C2/m,monoclinic,2D,0.001,na,-0.189187433,-1.547338667,183.3651012,166.2816939,2580631.057,2583231.033,0.002794102,0.002390698,3.49E-05,3.49E-05,na,na
JVASP-12154,VAg(PS3)2,13,P2/c,monoclinic,2D,0.0017,na,34.20541803,34.07360133,70.05449022,65.41226713,41274.96123,42856.7013,0.027196086,0.024879445,0.000187519,0.000187519,-11.51228933,-9.837915
JVASP-12158,Y2GeI2,166,R-3m,trigonal,2D,0.1367,na,-204.7858833,158.8151233,3601.341776,845.915668,67725.37403,29487.38297,0.845118989,0.168858968,0.013865237,0.013865237,na,na
JVASP-12160,Al2Si4O11,2,P-1,triclinic,2D,4.2891,na,-116.9177467,339.3587333,712.8153077,196.1276309,52054.525,1668.472853,0.258118463,0.117059745,0.479157503,0.479157503,na,na
JVASP-12161,HgPSe3,15,C2/c,monoclinic,2D,1.0041,na,-149.16544,299.34247,1525.653063,1076.248367,63287.307,11399.8986,0.492329511,0.588284916,0.527827893,0.527827893,-136.6770867,350.2459267
JVASP-12162,BaCaI4,10,P2/m,monoclinic,3D,3.154,4.1072,-236.6551367,223.2256667,2165.129017,1046.878209,35702.803,22666.618,0.865624767,0.477010249,0.954869749,0.954869749,na,na
JVASP-12163,CaPbI4,10,P2/m,monoclinic,3D,2.8989,3.7491,-222.7872167,323.8746933,1501.756147,1508.967623,39457.32403,14667.2527,0.544855295,0.79561468,5.469035233,5.469035233,na,na
JVASP-12164,YBr3,12,C2/m,monoclinic,2D,3.5904,4.3189,-308.3926767,329.7541433,1511.167686,974.9689488,15742.974,9518.7588,0.771455176,0.530867087,1.140621876,1.140621876,na,na
JVASP-12165,NdIO,129,P4/nmm,tetragonal,2D,3.6792,4.76,-385.3759667,343.24907,2542.193493,2364.275381,17848.504,18727.12467,1.327723908,1.178498488,1.879524681,1.879524681,na,na
JVASP-12166,HoBrO,166,R-3m,trigonal,2D,3.7702,na,-273.67785,356.77193,1749.264646,1578.681112,22062.41681,12028.90653,0.817879951,0.809078917,8.609775196,8.609775196,na,na
JVASP-12167,ErClO,59,Pmmn,orthorhombic,2D,5.0886,na,-193.4412367,343.63921,1203.000921,1241.619647,30452.355,11822.51207,0.4764635,0.639543054,0.904906643,0.904906643,na,na
JVASP-12171,Mn(CoO3)2,64,Cmce,orthorhombic,2D,0.0038,na,-20.9513393,-20.64750533,134.1624246,135.0664164,193909.582,193482.517,0.036066544,0.036135674,1.99E-05,1.99E-05,na,na
JVASP-12172,CrP2S7,5,C2,monoclinic,2D,0.7034,0.0027,37.77297767,38.74791233,121.2496035,123.8858134,56844.74833,57452.35767,0.045268293,0.046885483,9.20E-05,9.20E-05,na,na
JVASP-12177,Sb,194,P6_3/mmc,hexagonal,3D,0.0074,0.0068,-2.362118633,-2.107250367,108.4966443,85.58872491,19332420.33,19301627.67,0.000229907,0.000179079,1.51E-07,1.51E-07,-4.5559113,-4.497829667
JVASP-12178,Li2WS4,111,P-42m,tetragonal,3D,1.3182,2.3223,-453.4532233,341.4580933,0.028262493,1698.910088,0.136971593,14544.943,1.70E-05,0.910263034,111027.0772,111027.0772,na,na
JVASP-12179,Ta2Se,129,P4/nmm,tetragonal,2D,0.0025,na,-20.91547857,-20.2920366,675.5974183,624.9286678,1126056.43,1114737.603,0.017189743,0.015982914,2.78E-06,2.78E-06,-33.235248,-33.15021433
JVASP-12181,As2Se3,14,P2_1/c,monoclinic,2D,1.1358,na,-263.1410267,229.3445067,967.8407026,1714.971116,13899.35467,34379.59867,0.5114812,0.713778065,1.426222344,1.426222344,-291.5042033,305.47366
JVASP-12182,YTe3,63,Cmcm,orthorhombic,2D,0.0007,na,-0.845998733,0.1929383,163.5706977,182.4474222,6729066.48,6665999.669,0.000986878,0.001446206,1.54E-05,1.54E-05,na,na
JVASP-12184,SiSb3,194,P6_3/mmc,hexagonal,3D,0.0011,na,0.744589433,0.640758433,61.27763018,59.64141715,10764642,10772682,0.000233635,0.000227536,2.60E-07,2.60E-07,na,na
JVASP-12185,Sb3Pb,194,P6_3/mmc,hexagonal,2D,0.0034,na,-0.736293833,-0.856548667,950.5245158,1005.169757,9279037,9272921.1,0.004107624,0.004331526,3.01E-07,3.01E-07,na,na
JVASP-12186,SiAs2,55,Pbam,orthorhombic,2D,0.8716,na,-183.94679,222.3581367,2545.92536,1435.710863,69639.34933,33100.10133,0.625997413,0.644090404,0.474662853,0.474662853,na,na
JVASP-12187,SiAs3,194,P6_3/mmc,hexagonal,3D,0.0008,na,5.111610567,4.699010133,1260.304009,1254.884597,7846566.433,7873171.067,0.006292037,0.00624464,3.56E-07,3.56E-07,na,na
JVASP-12188,AuClO2,20,C222_1,orthorhombic,2D,0.8438,na,-167.4528533,466.1760867,829.4310255,1298.680507,28938.92667,5529.892167,0.36137689,0.738305926,0.722312245,0.722312245,na,na
JVASP-12189,WO2,194,P6_3/mmc,hexagonal,2D,0.0061,na,-12.2704746,-12.36008287,1077.580567,1077.648773,3763269.1,3751754.9,0.010698045,0.01074796,7.65E-07,7.65E-07,na,na
JVASP-12190,TiS2,166,R-3m,trigonal,2D,0.0062,na,-20.52281167,57.22387267,97.50803698,815.3910441,197985.7707,227321.4227,0.018840616,0.056579748,6.09E-05,6.09E-05,na,na
JVASP-12191,SnO2,194,P6_3/mmc,hexagonal,3D,0.6608,1.0558,-22.931972,24.48736967,387.983233,2886.031355,135545.23,132871.8817,0.068637979,0.216160307,3.60E-05,3.60E-05,na,na
JVASP-12192,TiO2,194,P6_3/mmc,hexagonal,3D,0.0024,na,-33.214439,-33.57832133,1878.701753,1898.576738,1957597.9,1942965.333,0.053463632,0.054075681,1.68E-06,1.68E-06,na,na
JVASP-12194,TeO3,185,P6_3cm,hexagonal,2D,0.432,na,-86.21809233,-6.456354333,488.4800062,30.14614193,66085.906,8341.939967,0.158668951,0.012065852,0.001733603,0.001733603,na,na
JVASP-22514,CoF2,136,P4_2/mnm,tetragonal,3D,0.0057,0.0099,3.448854233,2.913319,92.83408526,81.09557346,1530608.133,1531950.767,0.002979361,0.002613204,1.79E-06,1.79E-06,-28.41087533,-9.779802667
JVASP-22515,MnF2,60,Pbcn,orthorhombic,3D,0.1791,0.0146,19.72863033,19.53207567,463.8161741,459.3396957,234185.8493,234605.404,0.050498473,0.049820416,1.84E-05,1.84E-05,-87.53484067,409.22179
JVASP-22516,FeF2,136,P4_2/mnm,tetragonal,3D,0.0835,0.0029,-72.47451967,-69.906396,1690.274245,1550.903363,324587.2267,320199.7467,0.113846718,0.104644204,1.28E-05,1.28E-05,-28.77842433,-28.637239
JVASP-22517,GaS,194,P6_3/mmc,hexagonal,2D,1.4183,2.4943,-205.1867,176.05386,3242.404278,1947.616734,74361.033,77495.165,0.905417125,0.483644655,0.181604709,0.181604709,-223.00563,307.73671
JVASP-22518,RbPS3,71,Immm,orthorhombic,3D,1.7003,2.5808,-283.8957067,286.4641633,1745.594255,1781.225171,22016.83733,21551.85633,0.874340059,0.835729919,1.467718148,1.467718148,-313.42155,305.4494567
JVASP-22519,CrMoF6,148,R-3,trigonal,3D,0.0005,0.0036,41.82866867,43.239322,191.3184082,201.080306,77759.86467,78182.50067,0.038215725,0.04033569,8.27E-05,8.27E-05,-31.38571433,-5.727101867
JVASP-22520,BeF2,152,P3_121,trigonal,3D,8.7018,12.2763,-154.2063633,509.12209,923.8478504,339.1387692,39536.98,1308.425947,0.375189536,0.201571834,0.695571467,0.695571467,-152.4177433,516.47052
JVASP-22521,Rh2S3,60,Pbcn,orthorhombic,3D,0.0259,na,-266.9247967,244.00653,1485.946437,1392.274162,22337.90533,24165.69133,0.624739814,0.553084304,0.01666215,0.01666215,-249.88536,217.9834167
JVASP-22522,BeO,216,F-43m,cubic,3D,7.2929,9.2298,-203.76493,396.88566,2321.743949,2604.371818,55918.491,16533.78067,0.842859565,1.294229801,0.52304452,0.52304452,-201.49782,389.41252
JVASP-22523,CO2,205,Pa3,cubic,3D,6.9311,9.685,-123.59382,437.77581,697.7738214,664.4477836,45679.481,3467.0279,0.271126467,0.391472832,0.541749044,0.541749044,-163.38365,490.98501
JVASP-22524,CaCl2,136,P4_2/mnm,tetragonal,3D,5.2887,6.7646,-234.7193633,307.94886,1406.39909,1034.133471,24927.97467,10876.6685,0.58293053,0.551332857,1.238930345,1.238930345,-250.7828533,314.06978
JVASP-22525,SrClF,129,P4/nmm,tetragonal,3D,5.9498,7.9106,-113.3135333,471.7797333,767.9492127,717.3300236,57599.76267,3233.3087,0.260291637,0.418928169,0.494745534,0.494745534,-173.14791,481.2099167
JVASP-22526,SrBrF,129,P4/nmm,tetragonal,3D,5.2929,6.8525,-126.2034333,447.65771,906.0516788,1015.507554,54535.09367,5047.034397,0.307404381,0.575199915,0.516334164,0.516334164,-111.1905867,468.38017
JVASP-22527,SrCl2,225,Fm-3m,cubic,3D,5.4985,7.6257,-230.25528,368.08741,2360.857696,3054.462672,44529.78667,22544.09967,0.946824865,1.438200234,0.564780976,0.564780976,-131.98746,374.28737
JVASP-22528,CaCl2,58,Pnnm,orthorhombic,3D,5.4217,6.8598,-244.22849,465.2718333,1491.177916,1076.184356,25171.643,5191.895267,0.624868318,0.618931448,1.252520744,1.252520744,-251.2961,358.38766
JVASP-22529,CaClF,129,P4/nmm,tetragonal,3D,5.6517,7.4697,-132.7915733,518.94918,848.8716554,691.9672101,45333.71833,2594.597033,0.313576068,0.405858643,0.567815849,0.567815849,-163.69807,522.0538467
JVASP-22530,NaHF2,166,R-3m,trigonal,3D,7.1362,12.0666,-152.53441,501.22615,976.6700691,858.4931404,41965.63767,3404.526233,0.389276712,0.499109029,0.684796482,0.684796482,-145.3924333,523.1517167
JVASP-22531,Bi2SO2,58,Pnnm,orthorhombic,3D,0.9351,1.7315,-66.35352567,439.70476,570.2256706,4472.354948,93605.11267,22598.9831,0.127408839,2.189639583,0.236414033,0.236414033,-60.08391133,444.96689
JVASP-22532,BrF5,36,Cmc2_1,orthorhombic,0D,3.1678,5.51,-338.8681767,333.41456,868.6010384,1252.266108,7277.349567,10711.274,0.473230971,0.675208193,4.225563466,4.225563466,-423.2846067,365.91928
JVASP-22533,IF7,41,Aea2,orthorhombic,3D,1.5121,2.3712,-204.1196367,479.7352733,868.558358,230.6601282,21449.99867,1140.207142,0.423197631,0.137841405,1.147511382,1.147511382,-252.3436667,448.81592
JVASP-22534,AsF3,33,Pna2_1,orthorhombic,0D,5.1841,7.6286,-361.9664,271.3901233,1418.898793,919.4167138,11096.24457,12043.61987,0.772605818,0.491054879,2.640731646,2.640731646,-393.09881,302.6461567
JVASP-22535,RbLiCl2,63,Cmcm,orthorhombic,3D,5.355,3.5426,-115.51851,490.8866633,771.6822637,1203.002308,58521.18967,7666.790003,0.268647344,0.651532338,0.467871232,0.467871232,-116.6040133,488.5843867
JVASP-22536,KSc2F7,65,Cmmm,orthorhombic,3D,5.7629,6.8501,-325.2261133,507.7892733,1064.714018,532.0350881,8787.0696,2060.704897,0.544650215,0.31491521,4.624507626,4.624507626,-334.3121433,530.3128667
JVASP-22537,CClF3,36,Cmc2_1,orthorhombic,2D,6.6902,8.0315,-316.27227,501.80176,752.0775026,333.1072372,7610.033,1444.078627,0.421237066,0.197608653,3.243003667,3.243003667,-268.9277667,486.0826833
JVASP-22539,K2MgF4,139,I4/mmm,tetragonal,3D,6.9568,10.5503,-143.0095,478.0345967,910.1189516,320.3417118,44473.158,1379.873933,0.354988117,0.190105572,0.607361737,0.607361737,-134.9335967,493.9591433
JVASP-22540,LiMgP,216,F-43m,cubic,3D,1.7384,2.2495,-145.0781933,327.29903,1846.6553,3682.908754,87736.75333,34379.65567,0.540833499,1.601207534,0.291036649,0.291036649,-160.66484,308.01965
JVASP-22541,H4BrN,215,P-43m,cubic,3D,4.3683,5.67,-89.577051,465.42258,584.8223682,2933.206819,72883.707,13540.908,0.180003898,1.568165088,0.334636606,0.334636606,-92.004457,466.17666
JVASP-22542,NaHS,160,R3m,trigonal,3D,3.386,5.2295,-113.5662367,394.0707067,886.8590649,2771.799109,68735.09767,17780.92233,0.264939455,1.428786665,0.376848983,0.376848983,-91.85582967,396.1210833
JVASP-22544,AgAsF6,225,Fm-3m,cubic,3D,1.4341,2.0085,-140.98556,418.24274,880.4864103,1337.551249,44296.90567,7646.340067,0.341382086,0.76858426,0.577591205,0.577591205,-141.02032,438.95024
JVASP-22545,LiYSe2,15,C2/c,monoclinic,3D,1.6253,2.15,-228.84871,330.2891933,1756.641001,1411.10555,29150.79433,13125.65967,0.779087453,0.751655323,1.042334779,1.042334779,-231.2172967,304.8189067
JVASP-22546,LiMgN,216,F-43m,cubic,3D,2.7861,3.6553,-191.26789,424.83473,2473.711753,3000.984379,67618.41067,16627.37567,0.814067479,1.54078218,0.417875602,0.417875602,-163.87593,405.41052
JVASP-22548,RbNO3,167,R-3c,trigonal,3D,3.0425,4.2391,-285.9792333,444.2221567,925.7908062,108.5303363,11226.639,540.5814733,0.498040475,0.06504507,2.728669075,2.728669075,-292.5606133,451.7721733
JVASP-22549,Ga2Te3,9,Cc,monoclinic,3D,0.0311,na,-208.67726,227.5729933,3254.74204,1938.702083,77881.61367,41986.364,0.957111356,0.693837284,0.406655629,0.406655629,-169.5296,229.38936
JVASP-22550,CaSnF6,148,R-3,trigonal,3D,5.488,8.0642,-176.0986133,557.37303,910.0923908,172.1956492,29350.04,554.0505767,0.406730027,0.102986639,0.795868061,0.795868061,-174.5641233,519.65972
JVASP-22551,N2O5,194,P6_3/mmc,hexagonal,0D,0.9322,1.886,-446.11862,383.0096133,441.8130312,809.0983285,2176.582267,5285.947753,0.26207635,0.463598831,7.904929263,7.904929263,-454.33412,380.6876367
JVASP-22552,NbSbRu,216,F-43m,cubic,3D,0.4191,0.4203,-161.23692,329.12529,1871.05878,3894.23032,71971.15033,35950.019,0.595143666,1.593658151,0.064399998,0.064399998,-163.79958,329.67924
JVASP-22554,FeCuO2,166,R-3m,trigonal,3D,0.7246,na,52.546194,51.97523367,2206.051695,2165.954175,787362.8867,790261.1467,0.157058068,0.153159382,3.07E-06,3.07E-06,na,na
JVASP-22556,SrFeO3,221,Pm-3m,cubic,3D,0.0036,na,19.674494,19.520571,1396.615127,1377.112236,3608025.5,3613968,0.017157712,0.016905566,7.63E-07,7.63E-07,-5.6662945,-5.9174709
JVASP-22557,CrCuO2,166,R-3m,trigonal,3D,0.003,0.0198,25.62630067,25.276206,796.2968351,780.6960035,2337262.593,2347524.87,0.036098938,0.035167675,2.70E-06,2.70E-06,na,na
JVASP-22559,MgVO3,63,Cmcm,orthorhombic,3D,0.3883,0.6514,-31.36322067,-32.21699,495.4007971,501.6211041,235612.2823,239130.6183,0.042417553,0.042198256,0.000974913,0.000974913,-347.4069033,397.10253
JVASP-22560,K2PdO2,71,Immm,orthorhombic,2D,1.4642,1.5667,-409.48315,390.4051633,1291.971412,2222.375847,7169.837967,16151.89843,0.725295438,0.968249684,40.33573006,40.33573006,-403.64654,408.8179167
JVASP-22561,Cs2TeI6,225,Fm-3m,cubic,3D,1.224,na,-170.30555,338.61822,2360.750355,2422.826683,81394.013,21130.10733,0.739198129,1.264601141,0.312673314,0.312673314,-182.615,357.86887
JVASP-22563,Na2CN2,12,C2/m,monoclinic,3D,3.3747,5.7709,-181.0594233,454.5531233,1164.406484,1383.165959,35474.23333,6447.8045,0.490037919,0.776680991,0.947761059,0.947761059,-156.61583,457.6461667
JVASP-22564,AsS,15,C2/c,monoclinic,3D,1.4659,na,-351.20524,212.01572,2168.610649,1192.790343,17618.535,25320.99033,1.139549521,0.506627457,1.260820561,1.260820561,-356.71969,285.8694167
JVASP-22566,RbAlF4,123,P4/mmm,tetragonal,3D,7.3637,9.968,-109.23477,458.4681233,776.9639888,822.6333138,65745.06833,3880.7685,0.251796923,0.481888272,0.435253189,0.435253189,-126.94165,480.2137967
JVASP-22570,K3MoF6,225,Fm-3m,cubic,3D,0.7399,2.6932,14.3583,12.39270133,13.38994749,9.994040847,64949.05367,65074.24733,0.00740549,0.005526753,2.62E-05,2.62E-05,na,na
JVASP-22571,SiO2,33,Pna2_1,orthorhombic,2D,5.8315,8.4305,-153.81163,397.3471967,1062.913123,1167.595845,46316.52,7433.9115,0.414706437,0.665014274,0.735714551,0.735714551,-129.6105533,409.7505633
JVASP-22573,TiO2,12,C2/m,monoclinic,3D,2.6815,3.0423,-317.92401,451.1737267,1124.852493,698.8179702,11439.72097,3484.506733,0.58401152,0.408274412,3.818831655,3.818831655,-341.8401233,464.95025
JVASP-22576,MgCrF6,148,R-3,trigonal,3D,2.0084,0.0013,-56.29634067,-57.35340367,318.5151146,328.3275959,90337.05167,89891.86267,0.145368381,0.150082412,2.33E-05,2.33E-05,46.09712233,44.075038
JVASP-22577,KMnF3,221,Pm-3m,cubic,3D,0.0202,na,53.279907,53.016505,2745.939185,2741.080281,967306.26,975213.19,0.110745708,0.110127207,2.84E-06,2.84E-06,na,na
JVASP-22578,SiO2,9,Cc,monoclinic,3D,5.7034,8.4018,-104.99486,420.6911533,686.9345803,1078.367279,62635.49533,6598.687967,0.223097362,0.604531428,0.397994443,0.397994443,-132.7177633,414.6887133
JVASP-22579,KMnF3,140,I4/mcm,tetragonal,3D,0.0246,0.0151,29.53011467,28.64269667,759.5513381,722.9965684,818989.0933,823011.6367,0.044319254,0.041960534,3.02E-06,3.02E-06,-121.6812333,321.2150533
JVASP-22580,K3WF6,225,Fm-3m,cubic,3D,0.0609,2.4611,-13.38397633,-14.74991633,16.50705935,20.03333268,92150.86,92081.86133,0.006499705,0.007926715,2.10E-05,2.10E-05,na,na
JVASP-22581,ZnS,160,R3m,trigonal,3D,2.1102,na,-58.738367,284.68167,377.5858406,1748.019755,109174,21341.88,0.091222259,0.844566195,0.1998418,0.1998418,-56.69857867,282.4554767
JVASP-22582,ZnS,160,R3m,trigonal,3D,2.1196,3.6249,-57.37147833,285.4508533,360.1462828,1875.974202,109537.6033,23002.29133,0.086177285,0.899607262,0.190089331,0.190089331,-55.334902,286.6867967
JVASP-22583,TlAsF6,148,R-3,trigonal,3D,4.3126,4.1072,-320.10714,428.1376667,1617.437084,999.5849373,15320.797,5476.672233,0.83875919,0.581906532,1.403328179,1.403328179,-308.8617033,415.37778
JVASP-22584,VF2,136,P4_2/mnm,tetragonal,3D,0.0603,0.0088,-25.747598,-25.85200667,3161.988947,3142.034047,864541.2333,863383.5967,0.144979992,0.144956477,3.53E-06,3.53E-06,-368.80827,300.7200867
JVASP-22585,FeF3,167,R-3c,trigonal,3D,0.632,0.0018,59.04655533,58.238524,1716.779824,1679.227725,489559.3267,492088.8733,0.199418027,0.193653238,4.98E-06,4.98E-06,-300.10848,312.8906933
JVASP-22586,Rb2NiF6,225,Fm-3m,cubic,3D,1.6055,1.1425,-403.777,540.97053,640.1363931,132.7912866,3926.3532,453.7559833,0.378020804,0.079580066,4.61899122,4.61899122,-410.45281,535.51147