JID,Composition,Spg.numb.,Spg.symb.,Cryst.,Dimensionality,OPT SCF gap, MBJ gap,n-Seebeck,p-Seebeck,n-powerfact,p-powerfact,n-cond,p-cond,n-ZT,p-ZT,Avg.elec.mass,Avg.hole mass,n-mp-Seeb,p-mp-Seeb
JVASP-20315,Al12Mo,204,Im3,cubic,3D,0.0171,na,-22.536285,-22.786368,1092.344091,1093.722851,2150774.167,2106478.7,0.0204056,0.020388738,1.34E-06,1.34E-06,-21.391685,-21.707433
JVASP-20316,Nb3Se4,176,P6_3/m,hexagonal,3D,0.0048,na,14.018663,14.941242,1010.255782,1041.886247,492151.285,479662.3007,0.051690268,0.055047534,2.86E-05,2.86E-05,8.203063667,8.490002333
JVASP-20317,Sb2Pt,205,Pa3,cubic,3D,0.0217,na,16.050855,44.695135,149.4182015,1246.515922,579972.18,623989.56,0.005553591,0.046713185,6.22E-06,6.22E-06,36.011209,60.394255
JVASP-20319,U3As4,220,I-43d,cubic,3D,0.0036,0.0003,14.161724,16.12565533,13.03416008,16.99306343,64990.63767,65348.697,0.003274888,0.004286351,6.28E-05,6.28E-05,1.469282,2.2848831
JVASP-20320,UB4,127,P4/mbm,tetragonal,3D,0.0006,na,33.55189967,33.33339233,1943.138826,1931.97925,716808.5667,722915.1067,0.076032579,0.075044978,4.58E-06,4.58E-06,3.411906333,2.939667333
JVASP-20321,Mg3Ru2,213,P4_132,cubic,3D,0.0055,na,3.3056836,2.3307024,8.316829431,4.143528993,761088.62,762775.5,0.000456906,0.00022802,3.58E-06,3.58E-06,3.9246351,3.0275866
JVASP-20322,YB4,127,P4/mbm,tetragonal,3D,0.0145,na,-9.787237333,-8.250777967,311.0119937,316.7096492,1831467.2,1818092.267,0.008059555,0.007727747,1.76E-06,1.76E-06,-9.3004243,-7.700948933
JVASP-20325,Er2O3,206,Ia3,cubic,3D,4.1379,na,-126.77885,416.9867,850.8228557,673.8799335,52935.31867,3875.5926,0.316332865,0.39602758,0.582048212,0.582048212,-115.31061,409.55944
JVASP-20326,NaF,225,Fm-3m,cubic,3D,6.5834,na,-140.45376,523.42737,910.1407659,973.2479159,46136.20067,3552.3081,0.349088559,0.562235016,0.597571286,0.597571286,-135.5439,533.60485
JVASP-20327,Pr2C3,220,I-43d,cubic,3D,0.0037,na,-18.41108933,-11.91689733,130.6308865,53.84199515,385377.9867,379135.76,0.008457806,0.003452091,8.91E-06,8.91E-06,-18.980095,-12.714538
JVASP-20329,Cr23C6,225,Fm-3m,cubic,3D,0.0073,na,43.07468433,42.22331567,1269.310804,1232.021638,684106.5833,691056.6767,0.081480708,0.079098577,3.74E-06,3.74E-06,30.839082,30.425967
JVASP-20331,Sb2Au,205,Pa3,cubic,3D,0.0253,0.0399,12.01995,10.900308,616.8878451,512.0330031,4269734.7,4309435.8,0.006336598,0.005221755,6.41E-07,6.41E-07,3.3542066,2.8137868
JVASP-20332,Sr5Si3,140,I4/mcm,tetragonal,3D,0.069,na,-17.17072533,-17.24947043,133.5323538,110.8841292,539544.98,538287.4767,0.022642879,0.018641072,1.04E-05,1.04E-05,-12.4706158,-11.88890833
JVASP-20333,Te2Rh,205,Pa3,cubic,3D,0.0042,na,-11.691416,-12.647331,421.0069983,489.8614588,3080031,3062495.8,0.006239634,0.007296381,8.89E-07,8.89E-07,-18.658835,-19.631779
JVASP-20335,U3P4,220,I-43d,cubic,3D,0.0012,na,4.019095533,5.2936029,2.750809256,4.779797824,170295.7533,170571.6333,0.000399111,0.00069462,2.01E-05,2.01E-05,-7.2662948,-6.8772307
JVASP-20338,V3S4,176,P6_3/m,hexagonal,3D,0.0101,na,30.05924007,29.3581248,511.546437,476.5268668,615204.9533,618844.1933,0.063629001,0.059352136,6.40E-06,6.40E-06,14.1442289,13.79050733
JVASP-20339,Ho2O3,206,Ia3,cubic,3D,4.0942,na,-116.92878,412.71869,701.5172897,457.3639876,51309.23533,2685.058133,0.260449159,0.270126147,0.468638439,0.468638439,-115.08129,410.80991
JVASP-20340,Ca3N2,206,Ia3,cubic,3D,1.3499,na,-95.743656,432.92521,670.0747319,242.005749,73097.61833,1291.219067,0.208532744,0.144502447,0.390101407,0.390101407,-82.206928,444.55272
JVASP-20341,MgBe13,226,Fm-3c,cubic,3D,0.0153,na,-26.232815,-24.06988267,1476.752881,1210.178312,2145942.267,2088821.933,0.024572021,0.020310197,1.40E-06,1.40E-06,-19.336535,-17.05009
JVASP-20342,Ho2S3,11,P2_1/m,monoclinic,3D,1.4743,na,-130.8041967,188.54375,791.3012089,567.0103529,29986.4914,12959.07663,0.269099269,0.289782445,1.217555518,1.217555518,-130.06085,195.28034
JVASP-20344,CaAs,189,P-62m,hexagonal,3D,0.005,na,47.68186333,34.93645,5215.304023,3578.480219,337351.8107,244982.7403,0.377666015,0.324884715,3.66E-05,3.66E-05,41.18963333,35.31832667
JVASP-20348,Co3S4,227,Fd-3m,cubic,3D,0.0093,na,19.05271667,20.754255,410.0293514,489.8322552,1129538.733,1137190.133,0.010767913,0.012922114,3.10E-06,3.10E-06,23.389835,24.887365
JVASP-20349,NaZn13,226,Fm-3c,cubic,3D,0.0298,na,1.8786312,0.907717803,10.74628805,2.517133142,3044916.7,3054952.633,0.000146,3.43E-05,9.16E-07,9.16E-07,1.3996447,-0.18392349
JVASP-20350,ZrSb2,58,Pnnm,orthorhombic,3D,0.0068,na,1.797319567,5.854176123,175.8267002,249.0569053,378198.91,381605.2633,0.015613139,0.021665707,8.49E-06,8.49E-06,-3.721496233,-0.298442533
JVASP-20351,SrF2,225,Fm-3m,cubic,3D,7.0719,na,-128.55825,540.45371,828.109834,1414.819435,50105.80433,4843.775567,0.306002112,0.815519064,0.515341247,0.515341247,-127.63135,534.21039
JVASP-20352,RhSe2,205,Pa3,cubic,3D,0.0083,na,6.5148411,5.678423,126.6907282,96.54672902,2984950.8,2994208.8,0.001941158,0.001484641,9.02E-07,9.02E-07,-4.4882624,-5.62322
JVASP-20361,DyPd,221,Pm-3m,cubic,3D,0.0153,na,-0.71373247,-0.8514277,4.149340001,5.902229427,8145319.3,8141802,2.10E-05,2.98E-05,3.38E-07,3.38E-07,na,na
JVASP-20362,Er2S3,11,P2_1/m,monoclinic,3D,1.4828,na,-128.0608133,185.9869267,789.1826725,567.9550632,31761.88053,13266.34193,0.262545497,0.289096207,1.156714934,1.156714934,-127.5483833,193.67149
JVASP-20363,Be2Cu,227,Fd-3m,cubic,3D,0.0142,na,-0.31742086,-0.073623087,0.685108366,0.03685233,6799677.933,6798872.633,4.02E-06,2.16E-07,4.19E-07,4.19E-07,-0.71677024,-0.50534741
JVASP-20364,Ni3N,182,P6_322,hexagonal,3D,0.0164,na,11.078801,11.32824767,207.8600096,215.3797243,1642967.167,1647786.933,0.004606205,0.004814861,2.00E-06,2.00E-06,11.44774833,11.5824337
JVASP-20365,ScMn2,194,P6_3/mmc,hexagonal,3D,0.0033,na,2.85538,3.141077,353.3804597,338.552862,1931873.5,1932865.167,0.006607269,0.006318589,1.55E-06,1.55E-06,1.091132667,1.302797
JVASP-20366,HoZn2,74,Imma,orthorhombic,3D,0.0013,na,6.384408467,6.478624167,140.0824011,137.7672401,3322943.667,3332701.733,0.001678914,0.001675789,8.88E-07,8.88E-07,7.5589529,7.6253223
JVASP-20367,ZrMo2,227,Fd-3m,cubic,3D,0.0064,na,5.6560156,5.4302897,166.3620577,153.7409813,5200356.133,5213671.333,0.001334698,0.001230576,5.38E-07,5.38E-07,2.2283332,1.9796496
JVASP-20368,HoSb,225,Fm-3m,cubic,3D,0.1416,na,-11.720328,-9.998116267,205.555906,144.2952952,1496409.4,1443496.733,0.005274002,0.003744108,1.97E-06,1.97E-06,-6.9012873,-5.2098282
JVASP-20370,ScAs,225,Fm-3m,cubic,3D,0.2659,na,-10.17592033,-10.20211233,194.185656,191.2145773,1875295.667,1837133.833,0.004045869,0.004072528,1.51E-06,1.51E-06,-6.5911259,-5.6545683
JVASP-20371,Nb3Sb,223,Pm-3n,cubic,3D,0.0235,na,9.1710529,17.286541,54.25379731,193.4543165,645047.57,647384.39,0.001805183,0.006355685,5.64E-06,5.64E-06,17.32975,20.768741
JVASP-20372,TbHg,221,Pm-3m,cubic,3D,0.0526,na,11.629409,11.456186,510.8000836,497.0170518,3776901.6,3786964,0.005713435,0.005529293,7.55E-07,7.55E-07,na,na
JVASP-20373,Ni3Se2,155,R32,trigonal,3D,0.0038,na,-6.859792867,-6.625469867,96.97102219,89.38482295,2012929.867,2006919.6,0.001843681,0.001706763,1.42E-06,1.42E-06,-7.227431867,-6.9938269
JVASP-20374,DyB2,191,P6/mmm,hexagonal,3D,0.0269,na,-4.453452133,-4.499335067,110.9187426,113.2925052,5596905.133,5587136.767,0.000805675,0.000824717,5.09E-07,5.09E-07,na,na
JVASP-20375,Ni3B,62,Pnma,orthorhombic,3D,0.0098,na,-22.68486233,-23.26553167,950.6864475,996.5624224,1972792.833,1964168.433,0.024516296,0.025751054,1.59E-06,1.59E-06,-23.286687,-23.83801967
JVASP-20376,NbAs,109,I4_1md,tetragonal,3D,0.0005,na,-27.95505067,21.42883767,342.6379778,237.3512993,445721.0367,450222.3833,0.013427476,0.008577821,1.53E-05,1.53E-05,-28.72617733,21.513616
JVASP-20377,ThTl3,221,Pm-3m,cubic,3D,0.0008,na,-7.4769908,-8.9655037,459.301969,656.7105466,8215700.8,8170047.9,0.002575316,0.003705932,3.28E-07,3.28E-07,na,na
JVASP-20379,ThGa2,141,I4_1/amd,tetragonal,3D,0.0046,na,-22.124949,27.37444067,290.5993333,466.2033054,587321.6267,597619.6367,0.008406107,0.013277724,9.08E-06,9.08E-06,-16.13388367,22.58268967
JVASP-20380,CoS2,205,Pa3,cubic,3D,0.0035,na,-33.076257,-33.970837,797.8190587,826.5332705,729242.03,716222.31,0.043669956,0.045274287,3.53E-06,3.53E-06,-11.241239,-12.328588
JVASP-20381,TiCu,129,P4/nmm,tetragonal,3D,0.0101,na,8.188035467,7.8596764,400.5421265,381.7001831,3863534.967,3872410.9,0.005329502,0.005059393,7.30E-07,7.30E-07,7.067250117,6.75690792
JVASP-20382,SrBe13,226,Fm-3c,cubic,3D,0.0068,na,-33.208935,-32.347269,1625.586745,1478.227034,1474009.4,1412751.9,0.041148165,0.037940469,1.98E-06,1.98E-06,-33.337917,-31.731876
JVASP-20384,PIr2,225,Fm-3m,cubic,3D,0.032,na,4.506380667,4.393528367,239.2442081,228.0969433,11781095.67,11816601.67,0.000833052,0.000791077,2.37E-07,2.37E-07,na,na
JVASP-20385,Sn2Ir,225,Fm-3m,cubic,3D,0.0345,na,4.546686533,4.393412067,140.5786587,131.6062234,6800320.3,6818244.167,0.000853397,0.000796068,4.15E-07,4.15E-07,na,na
JVASP-20387,PuS,225,Fm-3m,cubic,3D,0.2343,0.0027,-24.15785,-24.04804,999.6721761,985.805217,1712935.633,1704636.333,0.022434801,0.022208728,1.82E-06,1.82E-06,9.7909635,9.8101434
JVASP-20388,CeAl2,227,Fd-3m,cubic,3D,0.0016,na,66.68152767,67.41904633,1914.720747,1976.464769,430620.1633,434834.3733,0.119506063,0.122620698,7.65E-06,7.65E-06,46.753373,46.205976
JVASP-20389,FeCo,221,Pm-3m,cubic,3D,0.0046,0.0421,-5.2471601,-5.1333467,134.1450845,128.2803355,4872211.5,4868093.3,0.00108973,0.001043505,6.00E-07,6.00E-07,na,na
JVASP-20390,V3B2,127,P4/mbm,tetragonal,3D,0.0022,na,15.102356,15.05720633,773.5261749,771.5790479,3210873.733,3230427.533,0.009233785,0.009177271,9.11E-07,9.11E-07,13.838515,13.80898367
JVASP-20391,CePd3,221,Pm-3m,cubic,3D,0.0003,na,83.03232,85.083185,3026.916516,3264.878646,439042.03,451003.14,0.156262158,0.170017488,1.68E-05,1.68E-05,71.6812,71.790656
JVASP-20392,YbMg2,194,P6_3/mmc,hexagonal,3D,0.0055,na,15.10888837,15.28205877,726.2896983,738.2388202,2854427.567,2882980.467,0.011862494,0.011963938,1.02E-06,1.02E-06,9.887363733,10.14386373
JVASP-20393,CeOs2,227,Fd-3m,cubic,3D,0.0023,na,21.63357667,23.234416,490.4242176,568.9217738,1047888.933,1053874.833,0.013171979,0.015267055,3.31E-06,3.31E-06,33.012733,34.616852
JVASP-20394,UAs,225,Fm-3m,cubic,3D,0.0051,na,-17.554438,-17.236523,282.3181533,271.5043159,916146.5367,913855.25,0.010666542,0.010260984,3.28E-06,3.28E-06,na,na
JVASP-20395,Hf3Si2,127,P4/mbm,tetragonal,3D,0.0067,na,2.1416142,2.0560696,70.30660591,69.07078894,2637132.867,2639128.167,0.001103942,0.001081516,1.08E-06,1.08E-06,0.442187067,0.413387233
JVASP-20396,Ti5Si3,193,P6_3/mcm,hexagonal,3D,0.005,na,-7.3515097,-8.347547,61.91102202,73.73016291,1157880.613,1154760.74,0.002484756,0.003376587,2.59E-06,2.59E-06,-3.8303373,-4.46573777
JVASP-20397,ZrMn2,227,Fd-3m,cubic,3D,0.0038,0.0051,19.02081667,18.86866367,743.565267,734.4541819,2055231.633,2062920.167,0.014826608,0.014591751,1.36E-06,1.36E-06,-1.7909501,-2.0571818
JVASP-20398,HoAg2,139,I4/mmm,tetragonal,3D,0.0026,na,2.6193805,2.234216367,34.13287663,24.54206886,4564309.033,4570226.467,0.000347391,0.000246569,6.17E-07,6.17E-07,na,na
JVASP-20399,ScAl3,221,Pm-3m,cubic,3D,0.0188,na,3.411307,3.1872546,75.79954575,66.30836576,6513658.6,6527318.6,0.000480436,0.000418865,4.31E-07,4.31E-07,3.2330293,2.9893786
JVASP-20400,Nb3Au2,139,I4/mmm,tetragonal,3D,0.003,na,21.86933397,21.09053253,2181.941027,2056.548321,3440414.167,3469177.533,0.026945816,0.02517727,8.17E-07,8.17E-07,22.9041238,22.18714623
JVASP-20401,HfIr3,221,Pm-3m,cubic,3D,0.0075,na,8.3635654,8.5070528,493.8985456,512.228922,7060815,7077923.1,0.002759148,0.002854098,4.02E-07,4.02E-07,na,na
JVASP-20403,LuNi2,227,Fd-3m,cubic,3D,0.0257,0.0178,-3.168367033,-2.2590905,20.96116862,10.64568036,2088067.433,2085960.9,0.000350454,0.000178136,1.42E-06,1.42E-06,na,na
JVASP-20404,CrN,225,Fm-3m,cubic,3D,0.0055,na,-11.59769,-11.59272,825.2714431,823.8286646,6135554.6,6130080.9,0.005418718,0.005414896,4.60E-07,4.60E-07,na,na
JVASP-20405,Mg2Ni,180,P6_222,hexagonal,3D,0.0044,na,-21.80497567,-21.94992267,1574.321008,1593.688208,2802017.733,2767708.2,0.02028083,0.020576106,1.08E-06,1.08E-06,-20.75967533,-20.550161
JVASP-20406,Te2Os,205,Pa3,cubic,3D,0.0706,na,-51.412508,13.803178,268.3097141,13.91236329,101507.66,73020.152,0.056867373,0.002412937,6.35E-05,6.35E-05,-50.781497,23.284064
JVASP-20407,USe,225,Fm-3m,cubic,3D,0.0139,na,-26.05404733,-26.392763,638.8146953,653.1948024,941075.5767,937719.6233,0.0310336,0.031691315,2.85E-06,2.85E-06,10.05003,10.011184
JVASP-20409,SrGe,63,Cmcm,orthorhombic,3D,0.001,na,-19.19325038,-18.85500425,726.4767522,672.5831829,1450044.177,1432236.153,0.035914508,0.034799767,2.80E-06,2.80E-06,-18.99475627,-18.7328645
JVASP-20410,NpIr2,227,Fd-3m,cubic,3D,0.0141,na,-6.1568158,-6.4641011,40.23273961,44.31535158,1061371.167,1060566.533,0.00169649,0.001868857,2.46E-06,2.46E-06,-31.860669,-32.084394
JVASP-20411,Mg17Al12,217,I-43m,cubic,3D,0.0078,na,3.089273933,2.425289733,27.40920625,16.91415043,2871994.6,2875563.3,0.000398749,0.000244325,9.62E-07,9.62E-07,7.2818914,7.193149
JVASP-20412,YNi5,191,P6/mmm,hexagonal,3D,0.0092,na,-12.085148,-11.73329333,254.9737563,241.0608721,1728648.033,1726040,0.005117967,0.00483785,1.77E-06,1.77E-06,na,na
JVASP-20413,CeP,225,Fm-3m,cubic,3D,0.0089,na,40.220977,39.440781,2500.978588,2420.391849,1545983.1,1555946.533,0.08265116,0.079411734,1.78E-06,1.78E-06,na,na
JVASP-20414,Co3W,194,P6_3/mmc,hexagonal,3D,0.0002,na,36.36545333,36.23192467,2553.029417,2547.572498,1795306.833,1805777.633,0.05683088,0.056466925,1.56E-06,1.56E-06,41.40229867,41.050939
JVASP-20415,DyTe,225,Fm-3m,cubic,3D,0.0107,na,-8.924409333,-8.953891233,546.5653147,546.9161561,6862511.8,6821770.8,0.003233563,0.003256619,4.12E-07,4.12E-07,na,na
JVASP-20416,HoRh,221,Pm-3m,cubic,3D,0.002,na,1.8104124,4.248461,13.61134512,75.14650761,4152847.8,4163375,0.000104663,0.000579703,7.52E-07,7.52E-07,-1.8392486,1.7785017
JVASP-20417,SmZn,221,Pm-3m,cubic,3D,0.0197,na,6.9775301,6.9696777,174.4693519,174.4171946,3583568.5,3590574.2,0.001954977,0.001949294,7.90E-07,7.90E-07,na,na
JVASP-20418,DyAg,221,Pm-3m,cubic,3D,0.0015,na,10.41512,10.353729,557.5012478,554.2106037,5139457.6,5169889.3,0.004381906,0.0043314,5.39E-07,5.39E-07,11.841659,11.727853
JVASP-20419,Li2Pt,191,P6/mmm,hexagonal,3D,0.006,na,-14.2677261,-14.4350873,1002.514605,1002.195652,6871149.533,6841842.467,0.013195156,0.013437263,6.90E-07,6.90E-07,-14.33080634,-14.31364597
JVASP-20420,YbGa2,194,P6_3/mmc,hexagonal,3D,0.0167,na,-21.568783,-16.02597533,1115.154796,853.3274325,1151367.227,1090641.49,0.027385306,0.022746758,3.17E-06,3.17E-06,-18.2652908,-14.076854
JVASP-20422,HfSb2,58,Pnnm,orthorhombic,3D,0.0118,na,14.31980133,21.49253233,239.5230291,412.04379,369447.89,382654.3167,0.017832636,0.030304919,9.53E-06,9.53E-06,8.137505867,15.03034267
JVASP-20423,ThSe,225,Fm-3m,cubic,3D,0.017,na,-2.720855833,-2.4461674,45.03184859,36.34386413,6082872.5,6073775.733,0.000289986,0.000234059,4.64E-07,4.64E-07,1.0683422,1.3036976
JVASP-20424,NpAs,225,Fm-3m,cubic,3D,0.0332,na,-33.75758,-33.949852,691.034487,696.8904521,606397.0933,604628.68,0.044146457,0.044588591,4.35E-06,4.35E-06,-41.136098,-41.353688
JVASP-20425,TiSb,194,P6_3/mmc,hexagonal,3D,0.0194,na,8.953103667,8.977004067,200.4787183,203.1599421,1473731.273,1473066.41,0.007901107,0.007955474,2.86E-06,2.86E-06,5.760952333,6.169122
JVASP-20426,ErSb,225,Fm-3m,cubic,3D,0.154,na,-12.178047,-10.53394,219.0610427,157.824735,1477099.867,1422307.133,0.005704456,0.004155791,2.01E-06,2.01E-06,-7.6431141,-5.8430915
JVASP-20427,LuMg,221,Pm-3m,cubic,3D,0.0124,na,-4.622077,-5.2119008,86.67722899,110.0476951,4057239.7,4051246.5,0.000958395,0.00121862,6.69E-07,6.69E-07,na,na
JVASP-20429,BaHg,221,Pm-3m,cubic,3D,0.0328,na,2.7349916,2.6664062,37.18890325,35.40640359,4971659.5,4979998.3,0.000303781,0.000288573,5.64E-07,5.64E-07,3.9692078,3.9812015
JVASP-20430,Fe3Si,225,Fm-3m,cubic,3D,0.0079,na,-2.367860133,-2.655906733,15.7230784,19.77328264,2804306.567,2803193.867,0.000240039,0.000302224,9.73E-07,9.73E-07,3.9059296,3.6215267
JVASP-20431,LuPd,221,Pm-3m,cubic,3D,0.0022,na,-0.88429741,-1.0742265,7.534669546,11.11338381,9635350.2,9630627.6,3.26E-05,4.82E-05,2.93E-07,2.93E-07,na,na
JVASP-20432,LuCo2,227,Fd-3m,cubic,3D,0.0143,na,43.281453,43.35354833,2780.12768,2811.469743,1484092.867,1495836.467,0.070380384,0.070970811,1.93E-06,1.93E-06,-17.920974,-17.213129
JVASP-20433,CeGa2,191,P6/mmm,hexagonal,3D,0.0031,na,82.03489133,81.608498,5746.368148,5783.49226,836425.1633,851337.6767,0.26141573,0.261857094,5.00E-06,5.00E-06,50.51731267,50.265167
JVASP-20434,V3Pt,223,Pm-3n,cubic,3D,0.0035,na,12.465404,13.010292,227.0687149,247.751696,1461317.5,1463667.9,0.004842628,0.005282684,2.11E-06,2.11E-06,11.408358,11.977908
JVASP-20435,ScCo,221,Pm-3m,cubic,3D,0.0043,na,-6.5415461,-4.9892663,137.3395462,79.79767388,3209480.9,3205655.6,0.001371108,0.000800833,9.43E-07,9.43E-07,-6.2864639,-4.076612
JVASP-20436,FeNi,123,P4/mmm,tetragonal,3D,0.0009,na,-1.449357933,-1.579047567,10.60208175,12.57289815,4739398.133,4738175.4,9.23E-05,0.000109668,5.92E-07,5.92E-07,-3.558204433,-3.589712867
JVASP-20437,TmMg2,194,P6_3/mmc,hexagonal,3D,0.0053,na,-9.708145933,-10.21903993,189.5058228,210.4445475,1925629.367,1918013.633,0.004409717,0.004904785,1.42E-06,1.42E-06,-9.142828233,-9.433136567
JVASP-20438,ThHg2,194,P6_3/mmc,hexagonal,3D,0.0029,na,29.35910267,32.445757,1244.087474,1413.262602,1162788.26,1187682.2,0.034903793,0.038770524,2.67E-06,2.67E-06,23.50127933,28.91710167
JVASP-20440,Zr2Ag,139,I4/mmm,tetragonal,3D,0.0099,na,-2.643016167,-2.5612858,83.11151531,73.48567867,3218176.867,3214552.8,0.001045147,0.000925879,8.79E-07,8.79E-07,na,na
JVASP-20442,YbRh2,227,Fd-3m,cubic,3D,0.0004,na,-27.086725,-27.56468167,3382.157474,3481.753221,4609786.667,4582389.733,0.033033917,0.034154266,5.98E-07,5.98E-07,-28.268489,-28.780733
JVASP-20444,Dy2C3,220,I-43d,cubic,3D,0.0211,na,-22.90597933,-18.58862833,266.9437844,172.7745513,508770.69,500017.3633,0.014563067,0.00937665,6.56E-06,6.56E-06,-23.803404,-19.614868
JVASP-20445,HoZn,221,Pm-3m,cubic,3D,0.0159,na,4.7109335,4.6361912,71.18944578,68.98295198,3207758.5,3209364.9,0.00090326,0.000871765,8.68E-07,8.68E-07,na,na
JVASP-20446,Cu3Au,221,Pm-3m,cubic,3D,0.0006,na,-11.122488,-11.127322,1449.105825,1439.412208,11713757,11625292,0.005023491,0.005021843,2.42E-07,2.42E-07,-12.002055,-12.064873
JVASP-20447,FePt,123,P4/mmm,tetragonal,3D,0.0079,na,3.3393227,3.2311625,83.40872116,79.30132561,7213422.9,7220212.933,0.000608918,0.000582601,4.06E-07,4.06E-07,-1.0466548,-1.136760567
JVASP-20448,ErGe,63,Cmcm,orthorhombic,3D,0.0009,na,-6.662599333,-6.586890967,132.2963718,120.8102313,3068659.533,3065759.333,0.004776546,0.004454017,1.66E-06,1.66E-06,-6.406949567,-6.203353562
JVASP-20743,HoB2,191,P6/mmm,hexagonal,3D,0.0317,na,-4.7180391,-4.8602573,127.0522446,134.6347363,5714566.567,5703620.3,0.000911674,0.000970583,4.94E-07,4.94E-07,na,na
JVASP-20744,TbAg,221,Pm-3m,cubic,3D,0.0076,na,9.9381353,9.9707762,505.7161468,511.8111622,5120318.9,5148157.4,0.003967921,0.00399683,5.50E-07,5.50E-07,11.670427,11.642443
JVASP-20746,SmSb,225,Fm-3m,cubic,3D,0.0917,na,-9.621356233,-8.4447732,136.6223817,101.9267965,1475873.933,1429263.8,0.003553204,0.002666657,1.94E-06,1.94E-06,-4.2771639,-2.1244212
JVASP-20748,ZrCo,221,Pm-3m,cubic,3D,0.0029,na,-18.858094,-19.14516,2535.101728,2603.373003,7128527,7102617,0.015702335,0.016197384,3.88E-07,3.88E-07,na,na
JVASP-20749,PuSe,225,Fm-3m,cubic,3D,0.0623,0.0112,-39.767585,-39.865647,1776.346974,1763.753094,1123231.733,1109788.333,0.060078585,0.060113102,3.04E-06,3.04E-06,-30.642087,-30.840386
JVASP-20750,NdRh2,227,Fd-3m,cubic,3D,0.0062,na,15.050339,14.963767,524.1313172,522.5331513,2313915.767,2333629.867,0.008874321,0.008813421,1.20E-06,1.20E-06,15.736484,15.604925
JVASP-20751,Si2Ni,225,Fm-3m,cubic,3D,0.015,na,-7.806755267,-7.777705167,427.5715894,422.2637409,7015646.7,6980408.5,0.002451599,0.002430713,4.00E-07,4.00E-07,-8.0765398,-7.9888071
JVASP-20753,Al3Ir,194,P6_3/mmc,hexagonal,3D,0.0006,na,-5.943790167,-6.463924833,846.7691894,890.5766514,2557395.4,2540688.833,0.013233366,0.01422279,1.10E-06,1.10E-06,-4.543590933,-5.0672626