JID,Composition,Spg.numb.,Spg.symb.,Cryst.,Dimensionality,OPT SCF gap, MBJ gap,n-Seebeck,p-Seebeck,n-powerfact,p-powerfact,n-cond,p-cond,n-ZT,p-ZT,Avg.elec.mass,Avg.hole mass,n-mp-Seeb,p-mp-Seeb
JVASP-8002,PrCu5,191,P6/mmm,hexagonal,3D,0.0007,na,-13.08970223,-13.50418113,865.1707833,872.9814342,4706259.667,4692106.667,0.011954514,0.01214042,7.35E-07,7.35E-07,na,na
JVASP-8003,CdS,216,F-43m,cubic,3D,0.9928,2.5204,-48.273674,311.5678,290.8672063,2709.310362,124817.09,27909.60067,0.063753375,1.211020017,0.151951577,0.151951577,-47.746166,308.29786
JVASP-8004,CaC2,139,I4/mmm,tetragonal,3D,1.4437,2.621,-194.31154,346.2974633,2066.445355,1204.892924,54178.333,10104.30003,0.753812632,0.654490865,0.568869749,0.568869749,-182.4281867,340.9823067
JVASP-8005,SiOs,198,P2_13,cubic,3D,0.037,0.5494,-424.15912,318.70863,2532.471458,2391.166534,14076.249,23540.852,1.209764694,1.076516845,0.210006236,0.210006236,-423.90234,337.31069
JVASP-8006,C,206,Ia3,cubic,3D,2.7427,3.3186,-114.26757,252.26394,647.9746219,2539.025734,49626.31333,39898.517,0.241601119,1.063928443,0.436548458,0.436548458,-116.39701,227.7066
JVASP-8007,LuHg,221,Pm-3m,cubic,3D,0.0005,0.005,11.701033,11.410204,706.4529003,675.7362682,5159823,5190275.5,0.005734879,0.005449782,5.46E-07,5.46E-07,na,na
JVASP-8008,Ni2B,140,I4/mcm,tetragonal,3D,0.0085,0.0005,-2.451716653,-2.648380607,119.789738,123.4489473,4849043.967,4847965.767,0.001117786,0.001164549,5.86E-07,5.86E-07,-1.587214133,-1.7227373
JVASP-8009,SrMg,221,Pm-3m,cubic,3D,0.0058,0.0125,-0.91431636,-0.40400793,3.065543979,0.598199808,3667030.9,3664936.8,3.20E-05,6.23E-06,7.84E-07,7.84E-07,-4.0665797,-3.6610554
JVASP-8010,BaTe,221,Pm-3m,cubic,3D,0.7678,1.1754,-181.70141,184.77877,1838.558493,2634.307707,55687.902,77154.695,0.661635192,0.808453875,0.655461417,0.655461417,-175.04016,183.30293
JVASP-8011,LaZn,221,Pm-3m,cubic,3D,0.0118,na,2.202897,2.1186393,24.15132452,22.35047395,4976827.3,4979350.4,0.000199664,0.000184386,5.64E-07,5.64E-07,na,na
JVASP-8012,SrC2,139,I4/mmm,tetragonal,3D,1.796,3.0531,-198.3617633,411.3747833,2116.372966,1708.00764,53280.846,9422.931333,0.785497252,0.889306359,0.588015024,0.588015024,-186.36172,408.0289767
JVASP-8013,Te2Ru,58,Pnnm,orthorhombic,3D,0.0915,0.4553,-267.03068,194.3544633,2068.839896,1556.082303,28904.24233,43844.67133,0.817729445,0.574060162,0.014831329,0.014831329,-266.0938633,177.2001267
JVASP-8014,Ca2N,166,R-3m,trigonal,3D,0.0047,na,-2.438209,-2.763606,251.8541543,255.622269,1434509.263,1417017.413,0.00797309,0.00793307,6.15E-06,6.15E-06,na,na
JVASP-8015,VPt3,139,I4/mmm,tetragonal,3D,0.014,0.0054,-8.952213667,-9.1881024,1956.886689,1955.323418,3532237,3526121.3,0.023567001,0.023582891,7.90E-07,7.90E-07,na,na
JVASP-8017,SrCu5,191,P6/mmm,hexagonal,3D,0.0049,na,-5.0983941,-5.333775333,481.482041,507.8341192,6590773.367,6567176.067,0.001943341,0.002069362,4.94E-07,4.94E-07,na,na
JVASP-8018,MnIr,123,P4/mmm,tetragonal,3D,0.0006,na,-0.48359477,-0.508998897,2.536217001,2.929324662,9414763.733,9413668.733,1.07E-05,1.23E-05,3.00E-07,3.00E-07,na,na
JVASP-8019,CeAg,221,Pm-3m,cubic,3D,0.0004,na,49.025195,48.626825,5506.388122,5444.884602,2291016.2,2302697.3,0.112259148,0.110435289,1.26E-06,1.26E-06,na,na
JVASP-8020,Nd2O3,164,P-3m1,trigonal,3D,3.9598,5.3153,-256.9431833,434.0562233,1678.418213,1572.663731,25110.71833,8419.409767,0.771769597,0.866461798,1.020005441,1.020005441,-240.02575,433.3533733
JVASP-8021,LiIr,187,P-6m2,hexagonal,3D,0.0069,na,-1.066019,-1.240886667,1648.64643,1725.161432,9200173.704,9159912.394,0.008670882,0.008969127,1.42E-05,1.42E-05,na,na
JVASP-8022,CeCu2,74,Imma,orthorhombic,3D,1.00E-04,na,51.06046867,50.658141,3175.29468,3167.818858,1024042.937,1032401.533,0.128505042,0.127019724,2.92E-06,2.92E-06,na,na
JVASP-8023,LuAl3,221,Pm-3m,cubic,3D,0.022,0.0087,0.54946039,0.39934288,2.240570201,1.184369537,7421398.9,7426690.7,1.24E-05,6.55E-06,3.78E-07,3.78E-07,na,na
JVASP-8024,ZrRh,221,Pm-3m,cubic,3D,0.007,na,-11.643991,-11.868206,1256.554613,1301.553369,9267821.2,9240422.5,0.005811949,0.006040494,3.00E-07,3.00E-07,na,na
JVASP-8025,TiF2,225,Fm-3m,cubic,3D,0.8036,0.062,-375.50734,439.0707,1466.653953,550.0208191,10401.376,2853.055467,0.789150794,0.324062798,2.012180104,2.012180104,-173.86206,428.70638
JVASP-8026,UNi5,216,F-43m,cubic,3D,0.0104,na,-10.878732,4.020844033,31.26770215,4.299070678,264204.0133,265913.3433,0.001615168,0.000224942,2.94E-05,2.94E-05,na,na
JVASP-8027,GaN,225,Fm-3m,cubic,3D,0.5089,2.0474,-122.30081,390.75716,1760.821578,7842.190548,117721.7433,51359.821,0.413331604,2.404713597,0.01001912,0.01001912,-123.77725,421.96655
JVASP-8028,YCuO2,194,P6_3/mmc,hexagonal,3D,2.8443,2.8716,-268.14415,491.8644833,2489.743125,1530.385476,34855.438,6368.854867,1.051170652,0.880392172,0.776920057,0.776920057,-280.44873,511.27155
JVASP-8029,BaTiO3,221,Pm-3m,cubic,3D,1.7638,2.0125,-313.86458,426.59999,3467.363769,2451.160849,35197.741,13468.838,1.49752803,1.277306671,0.860447911,0.860447911,-313.29961,418.40464
JVASP-8030,Sm4S3N2,12,C2/m,monoclinic,3D,1.3025,1.9477,-232.17423,229.2600533,1603.706127,1513.96373,24678.29273,28134.70057,0.682503601,0.616074017,2.995736549,2.995736549,-235.16899,224.7404933
JVASP-8031,CdSiAs2,122,I-42d,tetragonal,3D,0.7356,na,-59.66085633,237.6904,558.223023,2675.34484,155803.84,47512.48433,0.083374087,0.94234068,0.065320868,0.065320868,-74.42105233,229.2282467
JVASP-8032,AlCuO2,194,P6_3/mmc,hexagonal,3D,2.0883,2.0817,-162.4796533,474.0660467,1417.79768,2550.215912,51967,11003.51977,0.420809327,1.389051117,0.914225321,0.914225321,-177.1796567,492.04151
JVASP-8033,NaNbO3,221,Pm-3m,cubic,3D,1.6324,2.2837,-292.73627,419.77067,5230.424131,2440.307949,61035.687,13849.065,1.984099933,1.302673649,0.479200371,0.479200371,-291.62381,430.95028
JVASP-8034,TlS,140,I4/mcm,tetragonal,3D,0.6693,1.2385,-189.6740333,149.4844133,2584.561327,872.0844644,73486.77333,40159.85367,0.827993306,0.351630022,0.247487352,0.247487352,-206.4607767,164.7924967
JVASP-8036,BaSO4,216,F-43m,cubic,3D,4.562,7.5763,-131.1137933,437.00762,656.0123455,1937.246973,38160.60467,10143.947,0.274477506,1.084978258,0.531842884,0.531842884,-133.97349,441.28888
JVASP-8037,SrZrO3,221,Pm-3m,cubic,3D,3.4467,4.1359,-241.84166,425.39575,2738.849593,2547.301918,46828.037,14076.482,1.059349667,1.320362241,0.656921056,0.656921056,-247.86348,416.22509
JVASP-8038,Sr2SnO4,139,I4/mmm,tetragonal,3D,2.8677,4.1217,-106.53888,332.6480433,702.7386781,1358.248814,60762.88567,12989.1964,0.234617902,0.733019694,0.404555693,0.404555693,-97.27412367,331.5445333
JVASP-8039,BN,9,Cc,monoclinic,3D,3.7062,5.2395,-345.79397,340.31001,2691.828283,2369.810437,22611.209,20524.244,1.279030381,1.171265395,1.177470409,1.177470409,-240.7349067,369.1662467
JVASP-8040,RbCeS2,166,R-3m,trigonal,3D,0.0009,na,-90.23232333,-90.56300833,674.894691,669.7677151,66600.12167,65462.238,0.199147804,0.199369316,5.76E-05,5.76E-05,na,na
JVASP-8041,HgTe,152,P3_121,trigonal,3D,0.1728,1.0891,-183.6807067,272.8239933,2360.906131,1832.373825,70974.86,25407.46367,0.707936741,0.825026418,0.482166931,0.482166931,-113.4551133,249.67087
JVASP-8042,Ni3S2,155,R32,trigonal,3D,0.0026,na,-6.255611167,-6.067635233,80.070727,77.07891985,1892589.267,1887656.833,0.00163029,0.001573858,1.51E-06,1.51E-06,-7.264644,-7.074524667
JVASP-8043,CdS,225,Fm-3m,cubic,3D,0.4287,1.6542,-104.16607,238.67964,1358.262254,4962.941526,125178.8833,87118.103,0.220590284,0.563438717,0.000325549,0.000325549,-115.71213,373.89956
JVASP-8044,TbNiSb,216,F-43m,cubic,3D,0.0826,0.3229,-282.66595,196.72364,3679.909421,2417.816811,46056.41567,62475.579,1.349838168,0.75689801,0.014676475,0.014676475,-287.71414,208.56041
JVASP-8045,TiNi2Sn,225,Fm-3m,cubic,3D,0.0859,na,0.802233203,0.71911719,1.824244406,1.466468966,2834534.567,2835786.533,2.61E-05,2.10E-05,9.89E-07,9.89E-07,na,na
JVASP-8047,ZnSe,186,P6_3mc,hexagonal,3D,1.2554,2.6693,-35.69710667,263.92743,190.1139646,1797.898826,149797.1067,25940.79067,0.03798949,0.83230726,0.140840627,0.140840627,-39.100431,268.5384067
JVASP-8048,Ba2ZrS4,139,I4/mmm,tetragonal,3D,0.2379,na,-97.823233,323.7867,1198.510115,2047.489134,85132.933,20265.46567,0.305740661,1.000319397,57.07824966,57.07824966,-92.835062,322.90075
JVASP-8049,CdSnAs2,122,I-42d,tetragonal,3D,0.4928,na,-94.512997,225.9518567,1164.684006,2075.720505,129870.03,40559.71167,0.213714897,0.704522245,0.000831247,0.000831247,-84.90574167,216.1876133
JVASP-8051,ZnGeAs2,122,I-42d,tetragonal,3D,0.4501,1.0733,-120.9913833,232.0176833,2409.867138,2804.389492,164677.8867,52116.00933,0.368987798,0.930581474,0.000820106,0.000820106,-122.2061633,223.81633
JVASP-8052,Ga2CoS4,82,I-4,tetragonal,3D,0.0051,0.0073,-329.7315667,289.79828,1046.429652,839.7938582,9515.572433,10531.99167,0.53695375,0.420713074,0.123441125,0.123441125,na,na
JVASP-8053,NaTaO3,221,Pm-3m,cubic,3D,2.3316,3.6454,-291.05497,426.33352,4980.401622,2426.159171,58791.471,13348.127,1.873105294,1.300266464,0.521732261,0.521732261,-291.48549,428.07806
JVASP-8054,HoNiSb,216,F-43m,cubic,3D,0.0848,0.0056,-277.50418,190.08129,3620.63097,2385.290244,47015.94867,66018.01933,1.241003943,0.709584584,0.007923447,0.007923447,-281.50033,202.0346
JVASP-8055,Ba(CuS)2,139,I4/mmm,tetragonal,3D,0.0845,1.2625,-118.6150857,388.2643233,1422.484578,2175.18628,62682.62133,14415.90967,0.409781,1.14260793,0.944175134,0.944175134,-107.4148713,388.6871633
JVASP-8056,KAsF6,148,R-3,trigonal,3D,5.0949,6.7672,-206.3367567,498.3773767,901.5472181,221.508678,21171.349,900.8935667,0.438367414,0.131900557,1.132112823,1.132112823,-199.00248,399.7885467
JVASP-8057,KNbO3,99,P4mm,tetragonal,3D,1.5254,2.0439,-173.74287,428.40264,2390.901991,1867.411665,65059.19207,14208.08417,0.719837923,0.946620665,3.655406437,3.655406437,-175.3896733,440.6651633
JVASP-8058,Na2PtC2,164,P-3m1,trigonal,3D,0.0906,na,-141.8891633,329.2231067,2298.673363,6090.257312,113170.8543,44957.51593,0.534052402,1.515859756,0.099156388,0.099156388,-134.6252567,325.9808
JVASP-8059,DyNiSb,216,F-43m,cubic,3D,0.0837,0.3064,-280.18508,193.96827,3665.471801,2420.877744,46691.72,64344.50633,1.30454995,0.740069309,0.010930893,0.010930893,-285.03937,205.48109
JVASP-8060,NaCuO2,12,C2/m,monoclinic,3D,0.037,0.6339,-289.35421,358.07644,2395.212052,1948.515603,25517.06437,9998.696,0.948576868,0.869066125,0.352570951,0.352570951,-275.3229033,371.67827
JVASP-8061,SrHfO3,221,Pm-3m,cubic,3D,3.8856,5.4374,-228.05355,424.54916,2600.544031,2402.894998,50002.364,13331.494,0.990243784,1.257035712,0.636554499,0.636554499,-233.48528,412.16908
JVASP-8062,BaCO3,160,R3m,trigonal,3D,4.8281,6.6211,-362.1092067,348.2317567,1350.882646,1137.444211,10282.296,9322.116,0.728586057,0.607346089,2.328773354,2.328773354,-234.0722167,352.4299267
JVASP-8063,TlSbTe2,166,R-3m,trigonal,3D,0.0267,0.4244,-145.29025,170.46134,2668.673223,3334.432974,125381.82,115976.8667,0.469725824,0.702286444,0.0209181,0.0209181,-151.66998,206.9728
JVASP-8064,ScCuO2,166,R-3m,trigonal,3D,2.3994,2.4574,-328.2407033,444.37591,3074.670181,2085.51353,28532.55667,10413.77597,1.404003837,1.141341748,0.947850296,0.947850296,-321.23891,447.90585
JVASP-8065,GeO2,136,P4_2/mnm,tetragonal,3D,1.3661,3.0346,-71.248337,241.3786333,494.5984268,1012.673628,96789.066,17510.95733,0.126464005,0.504163081,0.238493004,0.238493004,-64.79158333,243.2181033
JVASP-8066,ZnSnSb2,122,I-42d,tetragonal,3D,0.013,0.2612,-150.37092,170.8359867,3676.332327,2037.886502,162508.8467,69846.55933,0.666990352,0.441306468,0.000367564,0.000367564,-141.8760167,191.0859633
JVASP-8067,C,194,P6_3/mmc,hexagonal,3D,3.7645,4.7622,-194.81435,172.9231833,2087.870981,1534.353431,56122.045,51097.94733,0.745998651,0.561462127,0.716557352,0.716557352,-145.27223,177.63977
JVASP-8069,CeAl5Ni2,71,Immm,orthorhombic,3D,0.0003,na,46.509354,45.61458333,4812.695618,4707.106204,2050350.967,2084679.9,0.101878688,0.098055006,1.43E-06,1.43E-06,na,na
JVASP-8070,Na2PdC2,164,P-3m1,trigonal,3D,0.8896,1.3339,-151.7375567,436.9725533,2207.469708,4934.277219,95325.15433,30437.88153,0.593624528,1.78267666,0.286738723,0.286738723,-150.7422533,452.22764
JVASP-8071,GaCuSe2,122,I-42d,tetragonal,3D,0.7084,1.3915,-32.69556767,270.5965933,140.130987,2191.562512,131001.1733,29958.45467,0.028771977,0.831263723,0.001451198,0.001451198,-39.56906933,259.5899933
JVASP-8072,NiP2,15,C2/c,monoclinic,3D,0.1453,0.3766,-254.5678767,375.6550733,3984.190061,3605.378078,62932.783,26452.3474,1.115327862,1.551330389,0.231283178,0.231283178,-195.99379,355.5813833
JVASP-8073,ScSnPd2,225,Fm-3m,cubic,3D,0.0128,0.0195,20.76155367,20.731494,1820.172915,1833.782192,4222726.433,4266645.4,0.017197493,0.017211772,6.73E-07,6.73E-07,na,na
JVASP-8074,Co2B,140,I4/mcm,tetragonal,3D,0.0004,0.0066,-4.308600833,-4.4308598,219.7004663,228.5388101,2720399.333,2719070.667,0.003523467,0.003669139,1.02E-06,1.02E-06,13.07190767,13.157228
JVASP-8075,GeMo3,223,Pm-3n,cubic,3D,0.0137,na,-9.6144104,-9.5186837,569.4410277,556.0612496,6160322.4,6137179.7,0.003694034,0.003620693,4.61E-07,4.61E-07,na,na
JVASP-8076,CdGeAs2,122,I-42d,tetragonal,3D,0.4699,0.5228,-95.831855,233.8104467,1252.999594,2304.670966,137055.1567,42656.11967,0.232239266,0.842812527,0.001776057,0.001776057,-95.567037,201.4494067
JVASP-8077,Sc3CoC4,71,Immm,orthorhombic,3D,0.0033,0.0028,20.49362003,20.37602807,1063.109203,1031.014774,1964329.623,1978138.433,0.022922251,0.022653978,3.02E-06,3.02E-06,na,na
JVASP-8078,Ti2FeSe4,12,C2/m,monoclinic,3D,0.001,na,-10.4063457,-10.59996017,179.9217851,184.478249,594949.8867,592760.9467,0.011017479,0.011313872,4.76E-06,4.76E-06,na,na
JVASP-8079,LuSb,225,Fm-3m,cubic,3D,0.1898,0.217,-11.769429,-10.062342,195.5553772,138.2676884,1411753.833,1365597,0.005265137,0.00380245,2.08E-06,2.08E-06,na,na
JVASP-8080,ZnSnAs2,122,I-42d,tetragonal,3D,0.1185,0.8032,-113.58559,217.3888833,2034.637728,2519.704689,157503.4567,53328.66967,0.311234855,0.761849941,0.000427617,0.000427617,-117.5935267,224.9535967
JVASP-8082,SrTiO3,221,Pm-3m,cubic,3D,1.8143,2.3022,-308.61333,411.41681,3596.620724,2322.161101,37762.895,13719.184,1.51505295,1.22124922,0.772026557,0.772026557,na,na
JVASP-8083,KNbO3,38,Amm2,orthorhombic,3D,1.8877,2.4019,-220.7822667,418.5246,1732.6216,2239.183779,36500.292,12950.89767,0.654425016,1.187768128,0.805181288,0.805181288,-193.8858667,400.01505
JVASP-8084,KCuC2,131,P4_2/mmc,tetragonal,3D,2.1218,2.1144,-217.09974,436.5133967,2600.775336,2552.800583,49591.866,13519.90118,0.926060109,1.333619283,0.549413787,0.549413787,-214.4678667,464.3382833
JVASP-8087,RbCuC2,131,P4_2/mmc,tetragonal,3D,2.1162,2.4744,-203.5993367,362.71127,2305.068727,3481.66305,50469.971,22311.41323,0.808542502,1.560759103,0.523418783,0.523418783,-198.5778033,421.1210067
JVASP-8088,Ag2PdO2,12,C2/m,monoclinic,3D,0.0119,0.5773,-284.3260633,382.11891,2362.54905,2171.428702,28635.23933,14204.6766,0.995976263,1.026243272,0.204068545,0.204068545,na,na
JVASP-8089,YSnPd2,225,Fm-3m,cubic,3D,0.0102,0.0286,11.140264,11.270385,554.56413,570.8624677,4468490.2,4494216.467,0.004926391,0.005048077,6.41E-07,6.41E-07,na,na
JVASP-8090,AlTlF4,123,P4/mmm,tetragonal,3D,4.5858,11.653,-203.83678,315.9392833,3011.550086,1854.287544,70357.20433,16768.92303,0.844756864,0.909850696,0.667477509,0.667477509,-225.3984833,315.4937467
JVASP-8091,CaAgAs,189,P-62m,hexagonal,3D,0.0564,na,-128.57132,94.06934467,1202.595505,1083.778667,73225.81567,118416.437,0.344593647,0.264076541,0.001297479,0.001297479,-122.38849,85.400837
JVASP-8092,ErSnAu,216,F-43m,cubic,3D,0.1439,0.123,-139.05391,113.95096,1857.62363,1088.651009,96070.78,83840.27667,0.27619997,0.154168,0.000175685,0.000175685,-82.705598,82.848575
JVASP-8093,BaCeO3,221,Pm-3m,cubic,3D,2.5424,2.2348,-463.50257,448.93806,40.05064947,4276.000725,186.42548,21216.069,0.024029267,2.128814413,74.26256664,74.26256664,-669.65175,439.83079
JVASP-8094,NaCrS2,166,R-3m,trigonal,3D,1.0681,0.0008,-312.0963733,340.8270567,3634.757188,1401.572205,37247.963,11936.09003,1.586415834,0.753880537,0.658915211,0.658915211,-295.0558567,352.2844733
JVASP-8095,Ni3Se4,12,C2/m,monoclinic,3D,0.0023,na,-11.07725303,-10.70282553,609.6606375,589.9821778,2577488.3,2565176.267,0.008802348,0.008630163,1.15E-06,1.15E-06,na,na
JVASP-8096,Cr2FeSe4,12,C2/m,monoclinic,3D,0.0005,na,-4.43896363,-5.351000746,22.09310422,25.13933379,437922.8667,436679.14,0.002291975,0.002630877,6.88E-06,6.88E-06,na,na
JVASP-8097,NdSF,129,P4/nmm,tetragonal,3D,1.3111,2.3623,-120.1662333,297.6906567,925.4993228,2155.078982,64793.977,25134.8101,0.297305561,0.962294215,0.619518079,0.619518079,-114.27413,312.0527267
JVASP-8098,AgNO2,44,Imm2,orthorhombic,2D,1.2015,1.7804,-327.09456,350.8140367,1585.27276,1859.119808,12702.081,14765.608,0.818766031,0.93083962,6.211727855,6.211727855,-356.7484033,432.5824067
JVASP-8099,BaTiO3,38,Amm2,orthorhombic,3D,2.2822,2.4294,-288.39153,346.9576233,1606.894637,2546.760593,19586.30167,21212.21067,0.752097097,1.255438291,1.54580201,1.54580201,-302.0610133,380.7580133
JVASP-8100,CsPbF3,221,Pm-3m,cubic,3D,3.4126,na,-197.07654,115.42034,2084.546018,739.8674714,53671.24,55537.872,0.70582512,0.261569145,0.259958434,0.259958434,-223.31097,104.58542
JVASP-8101,CaTiO3,221,Pm-3m,cubic,3D,1.8686,2.4057,-299.90832,408.251,3458.849472,2323.354006,38455.161,13939.939,1.433967337,1.216494054,0.790306764,0.790306764,-302.27037,407.57207
JVASP-8102,RbCuC2,123,P4/mmm,tetragonal,3D,2.0289,2.4551,-254.6618233,368.4185467,3008.988634,3446.351001,46212.392,21685.416,1.063735866,1.403280533,0.77431414,0.77431414,-263.6622133,357.79922
JVASP-8103,CrCuS2,160,R3m,trigonal,3D,0.0356,0.0056,-257.0255533,238.4463933,3004.11881,696.221394,45052.91367,12278.80663,1.051069022,0.225594352,0.010402023,0.010402023,na,na
JVASP-8104,CaSiO3,221,Pm-3m,cubic,3D,4.0205,5.2674,-109.02778,382.50601,777.1295812,2336.647736,65376.114,15970.434,0.255959725,1.187048311,0.439993674,0.439993674,-97.496316,382.80575
JVASP-8105,LiAlGe,216,F-43m,cubic,3D,0.2614,0.4614,-152.43349,214.69891,2076.911689,4590.425414,89383.477,99584.846,0.57258513,1.191447646,0.004221917,0.004221917,-121.46473,166.44302
JVASP-8106,AgCNO,63,Cmcm,orthorhombic,2D,2.0083,3.2172,-185.99824,327.56254,1585.59589,1563.481105,44675.6,15184.40383,0.602948676,0.817320531,0.552895441,0.552895441,-233.6229967,320.3527567
JVASP-8107,TiCo3,221,Pm-3m,cubic,3D,0.0093,0.0057,7.620356,7.6588523,269.7804182,272.7087245,4645793.5,4649129.5,0.002294787,0.002316164,6.08E-07,6.08E-07,na,na
JVASP-8108,PrCuSO,129,P4/nmm,tetragonal,3D,1.8558,2.8328,-120.0626433,303.8858467,714.7907874,1485.560773,46591.82833,15122.9638,0.248910547,0.750625957,0.434716048,0.434716048,-101.8758033,305.7797833
JVASP-8109,HgS,152,P3_121,trigonal,3D,1.3989,2.427,-138.7241967,340.1958367,1001.28719,1450.191827,54636.04533,12043.24627,0.365046962,0.768313501,0.734003655,0.734003655,-153.5012,359.59646
JVASP-8110,Tb2Fe2Si2C,12,C2/m,monoclinic,3D,0.0106,0.0021,-8.4772919,-8.225376133,90.86740987,85.44483542,1060561.99,1055557.593,0.002829264,0.002719156,2.96E-06,2.96E-06,na,na
JVASP-8111,LaAgSO,129,P4/nmm,tetragonal,3D,1.4231,na,-107.8327913,257.03024,568.4798211,1630.083009,47788.621,23986.417,0.215043478,0.764395836,0.414784752,0.414784752,-97.632242,255.4483167
JVASP-8113,AgCNO,11,P2_1/m,monoclinic,3D,3.1803,4.0953,-380.5591,335.19337,2176.97812,1701.532112,15268.52847,15697.52433,1.05010502,0.863251727,3.653835646,3.653835646,-290.8523867,323.13922
JVASP-8114,MnN,225,Fm-3m,cubic,3D,0.002,0.0005,-1.1962717,-1.4125233,5.142948423,7.168848943,3593771.6,3592996.533,6.40E-05,8.92E-05,7.58E-07,7.58E-07,20.6917,20.804824
JVASP-8115,KNaO,129,P4/nmm,tetragonal,3D,2.6492,4.9728,-111.9692767,464.2167967,778.8182398,696.5916996,62200.11267,3127.775867,0.26271651,0.402375931,0.452032994,0.452032994,-96.164433,471.9790733
JVASP-8116,YCuO2,166,R-3m,trigonal,3D,2.8765,2.8797,-309.74784,500.33502,2780.779135,1788.884463,28948.62633,7184.527967,1.266894824,1.009152126,0.907263511,0.907263511,-279.9588667,489.05984
JVASP-8117,CsCeS2,166,R-3m,trigonal,3D,0.0004,na,-25.9222085,-27.18607317,145.8662307,152.2482802,163545.1367,163082.05,0.035267363,0.037125194,1.49E-05,1.49E-05,na,na