JID,Composition,Spg.numb.,Spg.symb.,Cryst.,Dimensionality,OPT SCF gap, MBJ gap,n-Seebeck,p-Seebeck,n-powerfact,p-powerfact,n-cond,p-cond,n-ZT,p-ZT,Avg.elec.mass,Avg.hole mass,n-mp-Seeb,p-mp-Seeb
JVASP-22716,K2GeF6,164,P-3m1,trigonal,3D,5.966,8.5021,-174.87827,521.2269333,939.7467564,366.5693971,30640.93867,1344.59067,0.414950766,0.218385761,0.799622535,0.799622535,-159.4673833,520.52881
JVASP-22717,LiFeF4,10,P2/m,monoclinic,3D,0.8718,0.0016,40.83561867,39.680838,162.6821282,153.1306044,126391.5823,126820.5293,0.037156805,0.034838996,7.86E-05,7.86E-05,na,na
JVASP-22718,Rb2GeF6,164,P-3m1,trigonal,3D,5.9901,8.3694,-168.98751,523.4037933,908.0107835,234.2794295,31722.165,870.4971667,0.397233535,0.1400764,0.774310409,0.774310409,-152.8980533,522.8600733
JVASP-22719,RbMgF3,221,Pm-3m,cubic,3D,7.6494,10.4338,-137.93344,460.40835,938.2492294,1594.841082,49315.005,7523.6924,0.351871641,0.900326129,0.602691354,0.602691354,-119.8609,487.70532
JVASP-22720,Ba2SbAu,225,Fm-3m,cubic,3D,0.6996,0.8916,-197.44378,252.82361,4816.533103,5228.747189,123551.39,81801.711,1.247408454,1.563253843,0.19610872,0.19610872,na,na
JVASP-22721,PbBr2,136,P4_2/mnm,tetragonal,3D,2.6404,3.413,-286.72479,271.9557367,4700.963289,1859.175993,56880.25367,25006.23433,1.652164004,0.891253655,0.548809248,0.548809248,na,na
JVASP-22722,MoBr3,59,Pmmn,orthorhombic,3D,0.0051,na,-383.75881,312.5845667,681.6136286,1182.412985,3781.8179,11364.8871,0.372198549,0.621086587,2.488400498,2.488400498,na,na
JVASP-22723,MgMoN2,194,P6_3/mmc,hexagonal,3D,0.9389,1.1371,-399.0232667,107.373821,3185.96341,718.1405602,36053.8217,56687.898,1.304246401,0.234908931,52.77645265,52.77645265,na,na
JVASP-22724,NaLi2Bi,225,Fm-3m,cubic,3D,0.1115,0.931,-146.81342,245.89846,2167.80457,3796.230689,100574.67,62782.843,0.587484374,1.324143508,0.278115674,0.278115674,na,na
JVASP-22725,HfSiRu2,225,Fm-3m,cubic,3D,0.1381,0.1775,-224.41689,95.877378,2814.495108,1136.929761,55884.249,123680.53,0.528427803,0.239600351,0.00045319,0.00045319,na,na
JVASP-22726,Na2TlSb,225,Fm-3m,cubic,3D,0.2375,0.9655,-126.29933,395.49395,2245.003313,16305.24229,140739.14,104243.16,0.431558159,4.72875543,0.087705417,0.087705417,na,na
JVASP-22728,Ca2SnS4,65,Cmmm,orthorhombic,3D,0.9436,2.1023,-143.97737,296.7031733,1303.862835,1679.750971,62821.383,20814.517,0.430019237,0.772899323,0.3230723,0.3230723,na,na
JVASP-22729,Sr2SbAu,225,Fm-3m,cubic,3D,0.7709,0.9751,-173.61571,222.74868,4933.601634,5049.715476,163676.39,101773.95,0.911404019,1.334304509,0.146746898,0.146746898,na,na
JVASP-23440,Sr2AsAu,225,Fm-3m,cubic,3D,0.0711,0.8375,-225.20856,225.38755,7176.499028,4873.925622,141495.57,95944.272,1.654466686,1.251831004,0.170992095,0.170992095,na,na
JVASP-22732,CsK2Bi,225,Fm-3m,cubic,3D,0.6671,na,-44.997005,399.4606,250.2795034,3084.799756,123611.27,19332.102,0.054392778,1.628318445,0.12919546,0.12919546,na,na
JVASP-22733,RbF2,136,P4_2/mnm,tetragonal,3D,5.9091,0.0199,16.9749162,15.7414318,101.2748478,67.58603285,1416113.068,1419815.652,0.00267689,0.00178497,0.014879146,0.014879146,na,na
JVASP-22734,KNbO3,221,Pm-3m,cubic,3D,1.5259,2.0536,-280.53738,425.46351,4611.182014,2341.053229,58590.984,12932.624,1.733605399,1.25987748,0.505273645,0.505273645,na,na
JVASP-22735,LiCaAs,216,F-43m,cubic,3D,1.8826,2.4401,-232.85931,479.85966,2363.474132,2106.706978,43587.66867,9149.0426,0.967600875,1.174392354,0.647001073,0.647001073,na,na
JVASP-22736,NaCaAs,216,F-43m,cubic,3D,1.7955,2.5997,-216.48282,523.01181,2431.184433,1545.859108,51876.54367,5651.2812,0.905582589,0.891621375,0.361300388,0.361300388,na,na
JVASP-7070,VBiO4,88,I4_1/a,tetragonal,3D,2.111,na,-388.73458,383.7724667,964.4066579,1060.436105,6502.750467,7497.023167,0.560810271,0.607395606,3.626847277,3.626847277,na,na
JVASP-7076,ZnCu2SnS4,82,I-4,tetragonal,3D,0.03,na,-97.11132967,285.6902867,758.5147658,2333.451443,77462.066,28657.30167,0.188125785,0.927598193,0.001741485,0.001741485,na,na
JVASP-7079,ZnCu2SnSe4,82,I-4,tetragonal,3D,0.1109,na,-113.8683987,153.7645233,1142.187162,815.3668616,84736.67233,30691.904,0.298001357,0.197932924,0.000430703,0.000430703,na,na
JVASP-7109,H5PbCI3N2,25,Pmm2,orthorhombic,3D,1.8053,na,-210.5793033,151.042564,3676.933198,1382.912048,83977.63067,43192.88533,1.009842316,0.428144959,0.361268121,0.361268121,na,na
JVASP-7130,H6PbCNCl3,6,Pm,monoclinic,3D,2.738,na,11.63103563,4.363510333,2107.168412,857.7439412,5598055.177,5841621.907,0.012340585,0.004984172,2.63E-06,2.63E-06,na,na
JVASP-7136,H5PbCI3N2,25,Pmm2,orthorhombic,3D,1.8042,na,-210.6686133,150.9219157,3670.003196,1384.941513,83765.60467,43282.69067,1.008726119,0.428467934,0.360035218,0.360035218,na,na
JVASP-7139,HPbI3,1,P1,triclinic,3D,2.2354,na,-246.4012333,332.1039767,4840.997383,1931.498471,72864.93267,18708.943,0.953863777,0.923570779,3.50472244,3.50472244,na,na
JVASP-7629,SnS,216,F-43m,cubic,3D,0.3527,0.9011,-163.39563,202.37447,1831.700886,2144.510302,68607.82967,52362.05567,0.420136552,0.452017335,0.000806326,0.000806326,-192.53449,218.11126
JVASP-7630,BAs,216,F-43m,cubic,3D,1.415,1.9344,-222.71255,181.56731,4118.022733,2646.155282,83023.179,80267.55,1.252662733,0.736376465,0.290478294,0.290478294,-224.75724,207.08296
JVASP-7631,FeP,62,Pnma,orthorhombic,3D,0.0041,0.0055,-24.82191147,-23.79986613,695.3464834,667.5530207,760089.78,755972.1867,0.034564095,0.032962466,4.86E-06,4.86E-06,-26.84043267,-26.73852323
JVASP-7632,CdSnSb2,122,I-42d,tetragonal,3D,0.0561,0.6261,-157.7405133,194.6703933,3589.065583,2115.454672,144268.17,55827.92033,0.70781662,0.561936946,0.000799778,0.000799778,-154.3500933,207.1817167
JVASP-7633,SiO2,225,Fm-3m,cubic,3D,2.2105,3.2089,-228.06301,353.28392,2829.808411,3508.855176,54406.06667,28113.68033,1.030539911,1.62603853,0.523527911,0.523527911,-134.81218,355.1811
JVASP-7634,GeSe2,122,I-42d,tetragonal,3D,1.236,2.0553,-207.3233533,355.4945467,1628.320429,2595.621511,37908.013,20556.927,0.64790415,1.289118041,0.627053393,0.627053393,-253.23505,374.1856133
JVASP-7635,YSF,129,P4/nmm,tetragonal,3D,1.4046,2.1537,-124.7941433,295.9473067,960.2010019,2107.058676,62143.99067,25767.54033,0.314690778,0.930795161,0.637869906,0.637869906,-116.92846,300.2432833
JVASP-7636,NiHg,123,P4/mmm,tetragonal,3D,0.0184,0.0105,-19.954314,-20.365313,2580.162123,2655.310053,5986444.1,5945998.5,0.018559662,0.019257082,4.69E-07,4.69E-07,-26.520697,-26.835501
JVASP-7638,KAgC2,123,P4/mmm,tetragonal,3D,2.4203,3.144,-245.24653,353.5548433,2852.613826,2670.02293,48046.043,20358.01547,1.066409719,1.174603908,0.659318129,0.659318129,-231.1495,353.53198
JVASP-7639,K3Sb,225,Fm-3m,cubic,3D,0.9932,2.0078,-52.91355667,494.42808,319.9471135,1371.014272,114273.1733,5608.3579,0.073237525,0.795320176,0.163479427,0.163479427,-47.267035,502.44784
JVASP-7640,KZnSb,187,P-6m2,hexagonal,3D,0.0582,na,-113.924202,219.63599,1112.779133,3182.93729,253543.778,67135.88607,0.172792608,0.905279015,0.089539684,0.089539684,-128.5171567,215.1849333
JVASP-7641,NaGaTe2,140,I4/mcm,tetragonal,3D,0.3068,1.1419,-66.43588533,241.6078433,439.4723995,2443.537883,99287.69233,42599.83167,0.111585528,0.843864608,0.002084727,0.002084727,-67.93541533,255.54574
JVASP-7642,KAlTe2,140,I4/mcm,tetragonal,2D,1.9508,2.5747,-115.3075433,284.34707,828.2780006,2962.40717,63921.638,37077.88033,0.253140186,1.341763028,0.337850219,0.337850219,-125.69823,291.35612
JVASP-7643,NaAlSe2,140,I4/mcm,tetragonal,3D,2.4391,4.0777,-48.36359767,266.1658667,262.3595227,2758.201784,113807.7533,38078.17567,0.060593662,1.05526135,0.148340634,0.148340634,-58.955884,306.3482433
JVASP-7644,KCdF3,221,Pm-3m,cubic,3D,3.1755,6.5817,-134.41432,360.56756,911.3728087,2958.8522,50443.474,22758.832,0.337721117,1.492862886,0.561903388,0.561903388,-116.03784,358.27621
JVASP-7645,Lu,229,Im-3m,cubic,3D,0.0125,0.006,-17.934322,-18.14115167,1418.675336,1447.095995,4410756.6,4397113.067,0.013864792,0.014192003,6.30E-07,6.30E-07,na,na
JVASP-7646,YOF,129,P4/nmm,tetragonal,3D,5.237,6.6337,-371.27741,412.6139367,1335.697947,2522.189056,9477.5267,15203.20516,0.709725938,1.301348048,2.398885981,2.398885981,-241.0385233,435.56313
JVASP-7648,ZnS,186,P6_3mc,hexagonal,3D,2.1124,3.6163,-54.095419,273.62453,315.9067858,1641.013196,107937.02,21431.83567,0.076401138,0.793834613,0.172291685,0.172291685,-54.63317333,280.2078533
JVASP-7649,BaC2,15,C2/c,monoclinic,3D,2.2211,3.4537,-81.23571733,380.6419867,636.6939543,1015.571185,93931.99533,7002.625133,0.16147534,0.575928047,0.350813997,0.350813997,-149.7114067,436.9873433
JVASP-7650,PrPt5,191,P6/mmm,hexagonal,3D,0.0012,na,-0.486713,-0.558508867,48.50156737,54.86955079,4810370.033,4809678.933,0.000320021,0.000361466,6.44E-07,6.44E-07,na,na
JVASP-7651,K2CuSb,63,Cmcm,orthorhombic,3D,1.2484,1.7417,-148.3001067,340.16914,1200.140214,1120.562278,55004.02033,9444.186867,0.359752057,0.614310766,0.620425703,0.620425703,-152.4989133,323.39457
JVASP-7652,RbAuC2,123,P4/mmm,tetragonal,3D,2.1999,3.0002,-265.1625867,331.6291933,3759.931003,4056.034664,54036.14067,31356.16347,1.329775129,1.350794514,0.750563225,0.750563225,-269.4804333,333.8278033
JVASP-7653,NaAuC2,123,P4/mmm,tetragonal,3D,1.5238,2.2398,-142.21055,336.7331067,1751.772098,3809.565639,86352.25467,30279.893,0.496005127,1.650604648,0.331694998,0.331694998,-142.0967033,329.8587067
JVASP-7654,KAuC2,123,P4/mmm,tetragonal,3D,2.0133,2.8759,-221.8340367,315.77058,2922.405779,3667.647033,58606.096,30202.61813,0.966790843,1.162029107,0.548654082,0.548654082,-220.87172,326.4844733
JVASP-7655,Nb2O5,5,C2,monoclinic,3D,1.8405,2.6092,-276.6696033,335.32997,1624.196508,1433.705228,21508.175,12676.26207,0.766094836,0.751409066,1.214804481,1.214804481,-312.1767,280.33167
JVASP-7656,Ba(CuSe)2,139,I4/mmm,tetragonal,3D,0.2637,1.1145,-124.384827,355.08115,1553.092681,2368.045794,62313.14867,19196.87867,0.466871358,1.172594688,0.970003644,0.970003644,-121.2161183,345.3049067
JVASP-7657,HfV2,227,Fd-3m,cubic,3D,0.0449,na,-18.62723933,-18.715542,832.0309223,838.0084925,2397963,2392454.033,0.014705465,0.014810749,1.19E-06,1.19E-06,-10.29946,-10.365987
JVASP-7658,SrC2,15,C2/c,monoclinic,3D,2.4013,3.3583,-151.46627,451.24164,1337.595249,789.5499119,58571.59533,3879.566233,0.45632879,0.460767168,0.650434939,0.650434939,-149.0314767,427.49706
JVASP-7659,NaLi2N,225,Fm-3m,cubic,3D,2.7973,3.4864,-116.92167,337.21898,791.3694394,2366.447155,57888.09467,20810.034,0.254767564,1.131957408,0.388478484,0.388478484,-91.262637,336.8749
JVASP-7660,Lu2AlSi2,71,Immm,orthorhombic,3D,0.0011,0.0148,12.04146217,11.66269107,720.9085362,689.360013,3578444.6,3604755.267,0.007889091,0.007497427,9.33E-07,9.33E-07,na,na
JVASP-7661,BaLiP,187,P-6m2,hexagonal,2D,0.7237,1.4877,-204.4718,219.6596333,2061.046751,1754.111329,59992.456,45604.85367,0.586252226,0.636098775,0.461757706,0.461757706,-175.6995833,226.81743
JVASP-7662,LiInSe2,166,R-3m,trigonal,3D,0.7838,1.5509,-181.7238233,375.5977633,2238.985597,5548.120596,67767.87533,39322.24933,0.749929454,2.390838763,0.388742117,0.388742117,-180.5238367,382.5499733
JVASP-7663,SrS,221,Pm-3m,cubic,3D,1.777,2.7674,-197.25817,238.001,1864.705899,2975.709242,47922.597,52533.088,0.705943395,1.094900187,0.751023911,0.751023911,na,na
JVASP-7664,Sc,229,Im-3m,cubic,3D,0.0012,0.0063,-10.08292707,-10.46519333,707.6739414,730.7009928,2981434.567,2977217.967,0.011048478,0.011446973,8.99E-07,8.99E-07,na,na
JVASP-7665,SrTe,221,Pm-3m,cubic,3D,0.1792,1.2336,-178.57217,177.73808,2122.193643,2702.482686,66551.44,85546.442,0.699759341,0.803943289,0.395480036,0.395480036,-171.79125,177.85211
JVASP-7666,Ho,166,R-3m,trigonal,3D,0.0004,na,-2.989206733,-3.169074367,231.6862958,231.6371352,2749124.633,2746975.4,0.003490661,0.003497616,1.02E-06,1.02E-06,na,na
JVASP-7667,YbN,225,Fm-3m,cubic,3D,0.0117,na,-5.6359656,-5.7242856,109.9254882,113.251881,3460682.333,3456231.6,0.001305197,0.001344601,8.12E-07,8.12E-07,-8.7363075,-8.9661204
JVASP-7670,BaSe,221,Pm-3m,cubic,3D,1.258,1.9329,-180.71164,235.3152,1813.969064,3178.149849,55546.618,57395.046,0.661825277,1.090415546,0.632842656,0.632842656,na,na
JVASP-7671,CdSe,186,P6_3mc,hexagonal,3D,0.8293,2.0569,-33.69519367,277.0582933,178.1268373,1803.581564,156597.84,23544.44433,0.032957316,0.854785252,0.096309717,0.096309717,-35.07873367,287.57573
JVASP-7672,YbRh3C,221,Pm-3m,cubic,3D,0.0054,na,28.206028,27.82064,2750.614876,2695.360072,3457370.5,3482431.3,0.03447741,0.033563126,8.02E-07,8.02E-07,na,na
JVASP-7673,Pd2O,224,Pn-3m,cubic,3D,0.0017,na,5.348257,6.5018689,42.60821353,63.09673354,1489597,1492555.4,0.000980195,0.001443777,1.94E-06,1.94E-06,5.9953227,6.6869099
JVASP-7674,ThTaN3,221,Pm-3m,cubic,3D,0.0644,0.8275,-184.29375,171.14351,3801.817534,2016.224026,111936.07,68836.363,0.848175141,0.463597916,0.000962305,0.000962305,-191.54412,158.09307
JVASP-7675,Sm2O3,164,P-3m1,trigonal,3D,4.0694,5.5278,-249.82442,403.1913767,1699.694526,1781.531898,27086.52633,11215.00573,0.762777199,0.937670338,0.91500399,0.91500399,-239.67421,388.28093
JVASP-7676,GeSe,225,Fm-3m,cubic,3D,0.3619,0.3198,-138.04103,105.30585,2479.572068,2200.10656,130124.8833,198398.6533,0.399775715,0.280163854,0.004690479,0.004690479,-195.44834,130.96455
JVASP-7677,SmNi5,191,P6/mmm,hexagonal,3D,0.0018,na,-9.396509633,-8.920036333,205.3554693,189.4186043,1989482.1,1987051.033,0.003224495,0.002955137,1.60E-06,1.60E-06,na,na
JVASP-7678,MgSe,225,Fm-3m,cubic,3D,2.1169,3.3652,-137.65678,362.16058,1823.116207,3988.544459,96209.76167,30409.69633,0.504484576,1.818028058,0.275147505,0.275147505,-145.13353,339.53831
JVASP-7679,KHgSb,194,P6_3/mmc,hexagonal,3D,0.1215,na,-49.07729,46.707216,1219.670464,116.8969473,171494.7951,117696.386,0.133850458,0.021459774,0.000205213,0.000205213,na,na
JVASP-7680,RbCeSe2,166,R-3m,trigonal,3D,0.001,na,-109.9018843,-110.774462,745.7575384,742.5191006,49742.87533,48644.20633,0.258908861,0.259962599,8.53E-05,8.53E-05,na,na
JVASP-7681,Al2Ru,70,Fddd,orthorhombic,3D,0.0299,0.0474,-206.5266967,71.51815867,1379.169149,541.791166,27335.799,86173.77567,0.432325359,0.123629705,0.00066063,0.00066063,-200.9223003,78.61496467
JVASP-7682,Rb2PdC2,164,P-3m1,trigonal,3D,1.8203,2.3724,-225.45839,352.2111033,2349.86206,5561.97689,44662.134,34747.79925,0.880348396,1.956221843,0.721525863,0.721525863,-217.5108,381.9438433
JVASP-7683,HoSF,129,P4/nmm,tetragonal,3D,1.3904,2.5291,-119.67191,267.3768767,937.8892632,2170.290588,66324.40367,33314.87147,0.298446215,0.891910255,0.602287945,0.602287945,-111.2424067,276.8980467
JVASP-7684,ErSF,129,P4/nmm,tetragonal,3D,1.421,2.3872,-119.8498067,266.53764,943.1392016,2169.295726,66648.17567,33487.6991,0.300509262,0.890525561,0.603299644,0.603299644,-111.02763,275.7674867
JVASP-7685,Cu2HgGeS4,121,I-42m,tetragonal,3D,0.637,0.6089,-65.757582,212.1877867,476.1375832,1306.316803,109690.89,28692.83233,0.102207039,0.362498722,0.000391136,0.000391136,-76.92746767,232.5726667
JVASP-7686,Sn(HgSe2)2,82,I-4,tetragonal,3D,0.7662,1.2444,-35.41394333,259.14314,166.5003001,2199.800491,132591.1233,32812.03133,0.034244566,0.844316646,0.00175162,0.00175162,-43.86054333,283.9441333
JVASP-7687,CdCu2GeSe4,121,I-42m,tetragonal,3D,0.2315,na,-98.92103,184.3143467,977.9903571,1233.14633,99475.18567,36134.21,0.235368299,0.310116507,0.000283484,0.000283484,-102.013011,213.8314367
JVASP-7688,CeS,225,Fm-3m,cubic,3D,0.0055,0.0008,66.02493,66.220651,5220.510517,5297.178094,1197559.433,1207974.267,0.147565708,0.148909504,2.95E-06,2.95E-06,na,na
JVASP-7689,LiErO2,141,I4_1/amd,tetragonal,3D,4.6332,6.4627,-131.0480267,453.40184,940.0860061,2669.543385,56668.46467,13147.23437,0.329541143,1.387102768,0.610523832,0.610523832,-116.8707367,434.7810433
JVASP-7690,YbSbPd,216,F-43m,cubic,3D,0.0286,0.0133,9.493337967,9.330998133,499.3698849,484.9083572,5540952.967,5569336.567,0.003709971,0.003584631,5.06E-07,5.06E-07,na,na
JVASP-7691,YbC2,139,I4/mmm,tetragonal,3D,1.142,2.5198,-184.3283967,352.58612,2100.852504,1454.507929,61356.17667,11573.50667,0.737619466,0.765396621,0.496248276,0.496248276,-172.11221,343.1289167
JVASP-7692,GaCuO2,194,P6_3/mmc,hexagonal,3D,1.032,1.1909,-99.37468433,457.5705433,699.5742313,2652.555172,72462.60767,12378.6774,0.208548237,1.429650956,0.410988767,0.410988767,-125.3720333,470.8998133
JVASP-7693,ScAuO2,194,P6_3/mmc,hexagonal,3D,1.9153,2.8727,-314.4762033,342.14348,3977.330773,3897.582802,43534.27633,31865.0256,1.462245407,1.620465563,1.122836202,1.122836202,-238.4583767,356.85186
JVASP-7694,HoInRh,189,P-62m,hexagonal,3D,0.0019,na,-9.622225933,-9.148452867,1056.128071,1079.670032,1988341.867,1975048.967,0.014465887,0.014938865,1.66E-06,1.66E-06,na,na
JVASP-7695,SrP3,12,C2/m,monoclinic,3D,0.0118,0.4176,-100.6180987,22.76642333,1042.784248,1691.187621,97034.388,90591.26733,0.209372048,0.325608076,8.84E-05,8.84E-05,-121.4239533,60.57583167
JVASP-7696,Na5CuSO2,123,P4/mmm,tetragonal,3D,1.6732,2.2479,-142.3882433,447.9279667,873.0611347,427.6183821,40642.85133,2118.9382,0.344477371,0.253923938,0.662880541,0.662880541,-125.9290167,452.7173133
JVASP-7697,CrSi2,181,P6_422,hexagonal,3D,0.0252,0.0728,-292.64645,298.52185,1216.206468,1825.949037,12182.88513,19278.918,0.535665221,0.801663235,0.041377392,0.041377392,-313.2628233,310.9385667
JVASP-7698,NdAu,221,Pm-3m,cubic,3D,0.0193,0.0043,1.2809101,1.2745615,11.04236772,10.93803139,6730152.5,6733138.9,6.64E-05,6.57E-05,4.15E-07,4.15E-07,2.0686501,2.0928931
JVASP-7699,PrAu,221,Pm-3m,cubic,3D,0.0025,0.0049,0.38962362,0.41360151,1.033735626,1.16505355,6809558.1,6810541.7,6.14E-06,6.91E-06,4.17E-07,4.17E-07,1.4257633,1.462266
JVASP-7700,SmAu,221,Pm-3m,cubic,3D,0.004,0.0081,3.0861299,3.1312486,61.91293805,63.83954216,6500593.5,6511104.5,0.000383235,0.000394879,4.38E-07,4.38E-07,3.5678211,3.6239093
JVASP-7701,TbAu,221,Pm-3m,cubic,3D,0.0021,0.0001,4.3449398,4.5171545,116.5442281,126.2242819,6173383.3,6186044.2,0.000751801,0.00081136,4.59E-07,4.59E-07,6.9151048,7.0521439
JVASP-7702,TiAu,221,Pm-3m,cubic,3D,0.0088,0.0048,17.348982,17.707108,1051.801043,1099.021415,3494504.5,3505184.5,0.010911032,0.011360074,8.31E-07,8.31E-07,na,na
JVASP-7703,BaHg2,74,Imma,orthorhombic,3D,0.0003,na,11.7186643,11.07976327,835.8503119,763.1596334,3109810.533,3131900.267,0.011377268,0.010292713,8.88E-07,8.88E-07,10.074106,9.873209933
JVASP-7704,LuCd3,63,Cmcm,orthorhombic,3D,0.0034,na,7.156613233,7.374409933,544.000813,600.7732296,4663469.333,4678977.5,0.006473699,0.007091335,6.64E-07,6.64E-07,na,na
JVASP-7705,MgCuSn,216,F-43m,cubic,3D,0.0115,na,5.9586102,5.7355894,344.5897444,320.8305468,9705376.7,9752581.867,0.001463318,0.001357315,2.87E-07,2.87E-07,na,na
JVASP-7706,LiGaSi,216,F-43m,cubic,3D,0.0387,0.6632,-230.97091,195.62258,4906.715051,5495.961276,91976.37033,143616.95,1.209568342,1.210617326,0.005620986,0.005620986,-213.25988,170.17105
JVASP-7707,NdCu5,191,P6/mmm,hexagonal,3D,0.0022,na,-13.3811106,-13.86899783,1042.197784,1058.084643,5086866.7,5071820.367,0.013580676,0.013917041,6.80E-07,6.80E-07,na,na
JVASP-7711,ZrIr,221,Pm-3m,cubic,3D,0.0042,0.0153,-8.5009364,-8.7566009,752.6727508,796.7723727,10415321,10391139,0.003124219,0.003317279,2.68E-07,2.68E-07,na,na
JVASP-7712,LuNi5,191,P6/mmm,hexagonal,3D,0.0021,na,-9.527352433,-9.1679228,224.0641042,207.5742964,2524839.067,2522017.833,0.003177924,0.002940994,1.23E-06,1.23E-06,na,na
JVASP-7713,LuZn,221,Pm-3m,cubic,3D,0.0068,0.0047,5.5046399,5.2893447,133.7003081,123.648426,4412397,4419619.2,0.001269159,0.001170516,6.29E-07,6.29E-07,na,na
JVASP-7714,URh3,221,Pm-3m,cubic,3D,0.0044,0.0084,47.484209,47.318293,5359.687557,5367.563268,2377065,2397281.5,0.090570414,0.090242037,1.22E-06,1.22E-06,na,na
JVASP-7715,YNiSb,216,F-43m,cubic,3D,0.0805,0.3093,-281.76578,195.08198,3551.903962,2428.84068,44738.84,63821.16367,1.266125094,0.743629222,0.010473809,0.010473809,-283.98782,204.96942
JVASP-7716,YbTlPd,189,P-62m,hexagonal,3D,0.0061,na,-16.64716667,-18.24565103,1302.835462,1568.350001,3561381.433,3508941.033,0.01660346,0.020109083,7.74E-07,7.74E-07,na,na
JVASP-7717,TiPt,221,Pm-3m,cubic,3D,0.0017,0.0011,7.7137621,7.785666,461.6490038,470.8707106,7758529.6,7768016.5,0.00234128,0.002386747,3.67E-07,3.67E-07,9.0156915,9.097968
JVASP-7718,YSn3,221,Pm-3m,cubic,3D,0.0035,na,2.4041284,1.5953342,55.24849484,24.38579041,9558838.7,9581499.6,0.000253201,0.000112341,2.90E-07,2.90E-07,na,na