JID,Composition,Spg.numb.,Spg.symb.,Cryst.,Dimensionality,OPT SCF gap, MBJ gap,n-Seebeck,p-Seebeck,n-powerfact,p-powerfact,n-cond,p-cond,n-ZT,p-ZT,Avg.elec.mass,Avg.hole mass,n-mp-Seeb,p-mp-Seeb
JVASP-1762,SrCN2,166,R-3m,trigonal,3D,3.2289,5.4741,-151.5728167,323.7479133,1012.405562,2178.238856,43673.91167,21079.12767,0.398279716,0.997046984,0.71135254,0.71135254,-143.66005,315.72738
JVASP-2871,Ca2ZnN2,139,I4/mmm,tetragonal,3D,0.8415,1.6545,-343.58264,278.3500867,2275.329751,2055.414262,20261.37487,24083.179,1.08604866,0.924129054,11.72224273,11.72224273,-386.14913,278.96036
JVASP-2727,AlCuTe2,122,I-42d,tetragonal,3D,1.1019,1.8218,-121.3179933,261.5883733,1598.285671,2112.939232,108549.9767,31271.60867,0.302822091,0.881023231,0.117933153,0.117933153,-149.81592,277.1328267
JVASP-2071,RbBiS2,166,R-3m,trigonal,3D,1.4384,2.258,-96.677106,427.3559733,1058.553093,2498.446804,76331.59967,12901.9303,0.277868493,1.367202516,0.749131585,0.749131585,-92.92978267,418.4677933
JVASP-3942,ThIN,129,P4/nmm,tetragonal,2D,2.8238,na,-184.8744533,370.33647,1184.081987,2164.948903,30222.9484,15643.53677,0.49476143,1.127232988,2.519093458,2.519093458,-173.2764233,383.0607
JVASP-1375,Li3N,191,P6/mmm,hexagonal,3D,1.2919,2.3841,-203.1823333,327.63618,2694.441122,1965.240688,65242.86067,17600.83693,0.910813166,0.930670675,0.414338633,0.414338633,-179.20749,327.2422567
JVASP-3165,K4ZnP2,166,R-3m,trigonal,3D,1.018,na,-82.71596167,403.5220333,566.7596646,792.9554696,82823.91533,4840.575433,0.163048425,0.461098768,0.321745483,0.321745483,-80.749471,400.7368133
JVASP-4080,Pd(SeBr3)2,2,P-1,triclinic,0D,1.1899,1.2445,-313.7278933,386.4438667,1142.978181,1087.654605,12958.9819,7679.035833,0.598934986,0.616215911,3.755176269,3.755176269,-320.0254333,387.5673467
JVASP-2331,TaCu3Se4,215,P-43m,cubic,3D,1.5866,na,-307.34402,278.22554,2193.390124,2165.750786,23220.221,27977.86,1.110637801,0.985873322,1.162649015,1.162649015,-312.87683,289.63995
JVASP-4077,K4HgAs2,166,R-3m,trigonal,3D,0.2098,na,-82.057858,385.2153733,589.0578748,890.6518522,87102.015,5685.312367,0.15930966,0.514266049,0.31612827,0.31612827,-79.851831,383.6555267
JVASP-1603,K2Se,225,Fm-3m,cubic,3D,2.171,4.3041,-92.54349767,560.71473,633.8994625,547.31767,74016.50333,1740.8267,0.194267022,0.325178153,0.349683802,0.349683802,-90.327763,574.00861
JVASP-3282,Rb2PdF6,225,Fm-3m,cubic,3D,2.1761,2.2259,-380.54495,495.91561,932.4007102,280.8125495,6438.5885,1141.8287,0.540595113,0.16787721,3.117887111,3.117887111,-389.58955,500.01862
JVASP-2274,VCu3S4,215,P-43m,cubic,3D,1.1799,1.1968,-373.23308,264.35283,1084.948182,2240.400644,7788.4088,32059.575,0.614671261,0.934775644,2.045934394,2.045934394,-384.23791,306.57793
JVASP-2334,KUO3,221,Pm-3m,cubic,3D,0.013,0.0217,-462.90928,-11.683535,1306.425497,0.068093605,6096.6726,498.83601,0.739196936,3.72E-05,0.969564466,0.969564466,na,na
JVASP-2487,NaMgAs,129,P4/nmm,tetragonal,3D,1.1575,2.2268,-55.837274,316.7750067,372.173743,3408.017681,118610.4033,31748.70423,0.077137894,1.497103288,0.145211898,0.145211898,-50.30680567,304.5317367
JVASP-2769,SnF3,225,Fm-3m,cubic,3D,2.9403,3.7845,-244.24071,355.26072,2769.439588,2753.277246,46425.41433,21815.01733,1.10045574,1.421180979,0.573377923,0.573377923,-230.19582,354.77052
JVASP-4041,Ti(CuS)4,121,I-42m,tetragonal,3D,1.473,na,-344.0571333,411.6715433,1310.060917,1010.550383,11048.0346,6131.425133,0.703512564,0.57852092,2.360246505,2.360246505,-327.2801633,402.3022167
JVASP-4125,AcClO,129,P4/nmm,tetragonal,3D,4.4147,na,-107.5365067,433.9518,712.8514072,1228.962723,60509.001,6402.591833,0.24059485,0.708517474,0.434964528,0.434964528,-135.48385,450.61236
JVASP-1357,SrTe,225,Fm-3m,cubic,3D,1.7718,2.3095,-177.38565,229.80831,2434.17382,2042.488045,77359.672,38674.799,0.774874162,0.844245818,0.31346261,0.31346261,-192.82845,234.2158
JVASP-2610,K2AgAs,63,Cmcm,orthorhombic,3D,1.2867,2.0872,-158.4250333,382.5420767,1535.977212,1271.166403,61660.53233,8458.3469,0.48326772,0.707495615,0.66272916,0.66272916,-123.7180367,352.60172
JVASP-3348,BaAgTeF,129,P4/nmm,tetragonal,3D,1.6407,2.7174,-95.290392,278.6498767,572.8704284,2131.28308,63272.42233,29969.8807,0.186629826,0.930921416,0.347662918,0.347662918,-79.79156167,276.0176367
JVASP-1684,NbFeSb,216,F-43m,cubic,3D,0.7481,0.7263,-198.92252,354.55652,2528.128611,3635.720421,63889.76033,28921.41433,0.917548663,1.608318218,0.344092304,0.344092304,-170.4185,376.75586
JVASP-2685,Rb2PtS2,71,Immm,orthorhombic,3D,1.2762,1.7019,-297.39223,325.5637267,2959.488084,3049.48836,28385.157,26893.65403,1.247428341,1.177050084,4.725354486,4.725354486,-279.00441,335.33461
JVASP-1192,CdSe,216,F-43m,cubic,3D,0.7977,1.8401,-33.61679433,299.75048,175.9589191,2880.694925,155703.6133,32061.03167,0.032809487,1.252400174,0.090146787,0.090146787,-34.682773,294.55027
JVASP-1639,CdHgO2,12,C2/m,monoclinic,2D,0.5461,1.617,-95.56879967,412.69792,681.5437205,3671.649129,72370.62167,21641.43267,0.204907629,1.821667504,0.257432363,0.257432363,-89.54741,407.2707133
JVASP-1384,LiPb,221,Pm-3m,cubic,3D,0.0171,na,-1.6745034,-1.6121445,47.62801104,44.07079472,16985971,16956763,0.000114155,0.000105647,1.67E-07,1.67E-07,na,na
JVASP-3309,K2CuAs,63,Cmcm,orthorhombic,3D,1.2818,na,-154.1702533,350.2192367,1436.099738,869.3648862,59271.62133,6799.7031,0.469800819,0.495812731,0.546591253,0.546591253,-142.7409533,328.1619133
JVASP-1807,KSmS2,166,R-3m,trigonal,3D,2.2671,3.3126,-273.7445767,285.8447733,3222.506351,1615.739981,42395.03833,19569.15667,1.328915125,0.783678233,0.697853754,0.697853754,-246.8443767,290.2456867
JVASP-1777,ScTlSe2,166,R-3m,trigonal,3D,0.6166,na,-351.4532233,99.60909333,2624.4517,737.9620279,21420.08927,81275.02533,1.208925663,0.20565015,2.321540272,2.321540272,-381.1066533,99.99593833
JVASP-2601,Li2PdO2,71,Immm,orthorhombic,3D,1.3416,1.2861,-411.5289367,454.5916667,1606.171868,1574.905139,8886.9379,6961.1601,0.839306236,0.853349322,7.229894721,7.229894721,-280.7431767,424.95276
JVASP-2268,ThTeO,129,P4/nmm,tetragonal,3D,0.2015,0.6258,-123.6010267,178.33277,894.423587,1425.84515,57255.65233,45172.192,0.295135994,0.542641801,0.609326644,0.609326644,-127.9187233,150.3356467
JVASP-3627,NdCl3,176,P6_3/m,hexagonal,3D,4.3739,5.3735,-251.53947,433.2163633,956.1756159,1067.537131,14106.02633,5661.303167,0.471307963,0.612989945,1.265344258,1.265344258,-288.02641,414.6617733
JVASP-2544,KNbO3,160,R3m,trigonal,3D,2.0888,2.5958,-313.55872,435.13686,2996.511117,2396.114213,30584.721,12654.815,1.304154472,1.290338697,1.074452466,1.074452466,-337.3753667,428.5767
JVASP-3066,BaAgP,194,P6_3/mmc,hexagonal,3D,0.0622,0.567,-232.16195,103.1705317,2382.731398,1350.910992,42462.611,106453.94,0.69348564,0.292962338,0.002592636,0.002592636,-208.9242633,103.0611267
JVASP-3615,NdBrO,129,P4/nmm,tetragonal,2D,4.5075,5.6731,-345.9231333,381.3651533,3514.546883,1519.175496,28623.413,10292.9401,1.51489833,0.832851393,0.783695307,0.783695307,-393.2396233,360.70446
JVASP-3114,SrMg2N2,164,P-3m1,trigonal,3D,2.0833,na,-247.8944767,398.9533833,2936.900537,2762.772464,48217.545,17355.58267,1.060311103,1.374936788,0.717996521,0.717996521,-125.7695103,385.67045
JVASP-2580,RbHgF3,221,Pm-3m,cubic,3D,1.114,2.9773,-96.237159,342.99859,667.9813891,3342.512964,72123.829,28411.125,0.206842316,1.61421429,0.343885054,0.343885054,-92.37236,342.99316
JVASP-2343,Rb3AuO,221,Pm-3m,cubic,3D,0.0281,na,-138.28772,91.713466,1467.403429,337.6479826,76733.021,40141.902,0.296739454,0.048393163,0.000595408,0.000595408,-161.16711,198.52367
JVASP-3138,Nd2TeS2,164,P-3m1,trigonal,3D,1.5892,2.2169,-161.95408,173.5901267,1200.117064,891.4620163,45224.77,27629.37833,0.455619958,0.364732956,0.417702485,0.417702485,-189.6272233,220.80431
JVASP-2691,NaNbS2,194,P6_3/mmc,hexagonal,3D,0.7484,1.1504,-274.7429467,157.2665567,3743.897277,956.7201427,50936.49367,42864.521,1.415409979,0.357484896,0.659006722,0.659006722,-290.0358867,161.7862367
JVASP-3606,Rb2SnCl6,225,Fm-3m,cubic,3D,2.2202,3.7323,-125.34525,380.29579,748.4151801,2032.231997,47635.072,14051.74467,0.284146187,1.110152278,0.50210528,0.50210528,-142.54863,413.76405
JVASP-1492,YSbPt,216,F-43m,cubic,3D,0.5094,0.5442,-81.89860467,180.8518,686.1765022,2491.820457,102301.6967,76185.28133,0.130357862,0.684088599,0.000584561,0.000584561,-140.0342,188.88996
JVASP-3714,Ca(HO)2,164,P-3m1,trigonal,3D,4.4648,6.9369,-136.7749367,404.6241,880.8471865,1807.316145,47057.53433,11042.25677,0.336345654,0.959545148,0.595335894,0.595335894,-125.366,395.0160933
JVASP-1789,LiRhO2,166,R-3m,trigonal,3D,1.4732,0.0014,-374.1893367,472.0625067,2773.189008,1069.269416,19828.662,4771.015367,1.388742316,0.620932885,1.28367708,1.28367708,-369.7735767,478.73405
JVASP-4020,DySBr,59,Pmmn,orthorhombic,2D,2.7708,3.5937,-300.6384033,287.50714,2490.808049,1655.905533,28537.718,33754.3956,1.059886511,0.662459511,1.082743998,1.082743998,-309.85514,309.82587
JVASP-2694,KNbS2,194,P6_3/mmc,hexagonal,3D,0.8884,1.2762,-325.2573467,138.5911983,3249.033666,746.3850982,32778.10633,42500.73033,1.460557541,0.280037397,0.885836953,0.885836953,-336.93161,140.9423133
JVASP-1372,AlAs,216,F-43m,cubic,3D,1.6807,2.2763,-153.81588,293.38122,1971.544497,3680.339655,83330.54733,42758.58067,0.585616727,1.428661434,0.29425512,0.29425512,-177.28339,274.16802
JVASP-3963,K2PdF4,12,C2/m,monoclinic,3D,1.965,1.428,-418.7622433,566.00243,484.7451672,109.2881551,2688.135257,343.2274233,0.284882424,0.065409675,91.82726189,91.82726189,-419.3933567,478.14716
JVASP-1720,RbHoSe2,166,R-3m,trigonal,3D,1.9423,2.9691,-241.02094,243.5813933,2839.516538,1788.707439,48280.81833,29400.16787,1.073838394,0.779508145,0.575104545,0.575104545,-239.5227967,233.5203
JVASP-1417,SrO2,139,I4/mmm,tetragonal,3D,3.1005,4.2485,-380.8084833,436.7101433,3873.708465,1701.421583,21937.32167,9047.879967,1.467743557,0.888627548,2.344377681,2.344377681,-379.4409,430.7210567
JVASP-3051,RbSbF6,148,R-3,trigonal,3D,4.9681,6.6607,-193.30708,563.50178,894.6500365,188.0143797,23941.174,592.43149,0.422501053,0.112431115,1.01222133,1.01222133,-191.94337,481.6247733
JVASP-1324,PrMg,221,Pm-3m,cubic,3D,0.0087,na,3.6915502,3.7320563,36.29406188,37.13845147,2663287.3,2666413,0.000540897,0.000551835,1.06E-06,1.06E-06,na,na
JVASP-3780,LuSBr,59,Pmmn,orthorhombic,2D,2.8556,3.9063,-265.59754,290.1440333,2253.023447,1813.127355,33936.573,23332.0436,0.827720117,0.832489093,0.773950436,0.773950436,-261.33039,301.0909567
JVASP-2035,MnI2,164,P-3m1,trigonal,2D,1.0473,0.003,-340.57878,330.02897,1691.592939,1596.641919,14115.31724,15232.6435,0.901030073,0.817581602,38.93543261,38.93543261,-321.02804,331.4122933
JVASP-3102,K2CN2,12,C2/m,monoclinic,3D,3.636,5.9036,-137.9083967,435.5585833,866.3513425,884.1997026,44484.68367,4862.912757,0.32414514,0.49819692,0.583247836,0.583247836,-155.11538,448.8899467
JVASP-1855,LiCrO2,166,R-3m,trigonal,3D,0.992,0.0033,-284.4722567,435.7522567,1563.994138,642.4590752,19055.07167,3373.933,0.758454031,0.379185603,1.401153352,1.401153352,na,na
JVASP-1723,RbErSe2,166,R-3m,trigonal,3D,1.9651,2.927,-241.0012033,242.93751,2865.312589,1806.704473,48756.14233,29776.04923,1.081114949,0.783544853,0.574502966,0.574502966,-239.1688933,232.3174733
JVASP-2784,Ba4As2O,139,I4/mmm,tetragonal,3D,0.189,na,-94.17929033,283.4527233,701.8544967,1842.662558,68521.94167,24033.33567,0.200971272,0.841800627,0.496898577,0.496898577,-88.087282,267.41455
JVASP-1978,Sr2BrN,166,R-3m,trigonal,3D,1.9927,na,-224.2704733,517.0998567,2507.435889,619.0049795,49830.39367,2142.797127,0.946814754,0.365061856,0.540887512,0.540887512,-200.77348,521.96104
JVASP-4140,GaCl3,12,C2/m,monoclinic,3D,3.9204,6.0326,-154.2680467,451.34532,744.452368,415.9599199,30835.26,2083.236967,0.31661368,0.245465382,0.601046097,0.601046097,na,na
JVASP-3648,HgBr2,36,Cmc2_1,orthorhombic,3D,2.0753,3.3262,-88.47183967,415.7094133,544.660517,1928.290395,67921.264,11736.72353,0.166533408,1.044760997,0.339646673,0.339646673,-128.96892,438.2613833
JVASP-2817,K4IrO4,12,C2/m,monoclinic,3D,0.0027,0.0146,-154.850597,16.57849,163.8166893,239.5027515,4461.534467,4597.027467,0.093231451,0.111166525,0.029555018,0.029555018,-302.3772867,181.530375
JVASP-3153,LiZnPS4,82,I-4,tetragonal,3D,2.8645,3.4219,-225.1977733,298.0214833,1024.498914,1426.977482,20653.796,15729.77233,0.488726358,0.732337075,1.290487903,1.290487903,-256.4145833,302.8866767
JVASP-3888,K2TiCl6,225,Fm-3m,cubic,3D,1.9527,2.4858,-409.55018,381.18625,1034.435722,2324.779168,6167.217533,15999.531,0.601909796,1.251987814,2.838413658,2.838413658,-430.21727,405.27732
JVASP-3567,BiIO,129,P4/nmm,tetragonal,2D,1.5764,2.3687,-105.5052297,358.54036,1040.485508,3164.933629,82432.52178,26928.18823,0.269665325,1.441371572,6.110924771,6.110924771,-60.56987133,333.8432
JVASP-2586,Th2TeN2,139,I4/mmm,tetragonal,3D,1.6733,na,-337.70398,251.4956067,2213.353763,2712.451716,17487.75183,42406.25967,1.076707788,1.096408849,1.085183541,1.085183541,-311.8700733,252.8267367
JVASP-1819,LiYS2,166,R-3m,trigonal,3D,1.9697,2.0721,-238.7482867,262.7518233,2895.045032,1717.857981,50636.634,28636.83,1.118869732,0.76917495,0.540660579,0.540660579,-224.1091167,273.2987433
JVASP-3741,BaHBr,129,P4/nmm,tetragonal,3D,3.4169,4.4347,-111.00277,274.70075,748.6789602,1299.438177,59065.17733,18880.98073,0.250383288,0.618176334,0.487686552,0.487686552,-134.4955,284.2222633
JVASP-1909,NaInSe2,166,R-3m,trigonal,3D,1.0006,2.0145,-178.5540367,382.62935,2402.942713,3272.646574,75190.51967,23610.62913,0.752674659,1.55931426,0.371629709,0.371629709,-171.1657767,365.81299
JVASP-4098,K4CdAs2,166,R-3m,trigonal,3D,0.2136,1.916,-78.38535033,378.19812,555.2246198,876.6021471,91098.29567,5810.419533,0.151429144,0.50595848,0.309035559,0.309035559,-69.10452567,376.5140067
JVASP-3189,NdZnSbO,129,P4/nmm,tetragonal,3D,0.2852,na,-85.25255,245.7282167,918.6588882,4532.556228,110480.045,67056.4732,0.170986458,1.140496873,0.006610677,0.006610677,na,na
JVASP-2313,KCuO2,63,Cmcm,orthorhombic,2D,0.8599,na,-352.4108767,406.09971,1813.804428,1287.927006,11797.70167,7037.559,0.859678421,0.680251743,4.238455531,4.238455531,-345.3299,406.6343133
JVASP-2100,BaS2,15,C2/c,monoclinic,3D,1.6252,2.593,-319.0421433,381.7728667,6165.393527,1531.202547,52040.60123,10807.85153,2.114062816,0.823832674,2.318784351,2.318784351,-322.20023,387.1036833
JVASP-2238,KSnSb,186,P6_3mc,hexagonal,3D,0.1433,1.1109,-183.9941633,135.5208,3740.146634,1294.960302,104822.9533,71231.22733,0.909634646,0.40778103,0.059667256,0.059667256,-189.03009,141.6563233
JVASP-2649,BaP3,12,C2/m,monoclinic,3D,0.1081,1.022,-154.1582933,305.5655033,1255.187983,1790.450366,54241.163,21801.79933,0.445925886,0.873177198,0.720889464,0.720889464,-153.0967133,299.52476
JVASP-4110,Tl2PdCl4,123,P4/mmm,tetragonal,3D,1.0923,0.9382,-214.7166267,149.0124133,1303.346169,681.8368385,25702.49907,30109.288,0.564554403,0.286505917,1.706804633,1.706804633,-222.1091267,247.9956867
JVASP-2949,Ba2ZnN2,139,I4/mmm,tetragonal,3D,0.2711,1.0822,-214.1464,306.19303,2379.766866,2841.702489,55349.06933,27118.98,0.810475775,1.098491592,0.361682258,0.361682258,-227.5307767,308.63162
JVASP-1936,XeF2,139,I4/mmm,tetragonal,0D,2.3021,4.4943,-299.6821333,382.01326,1419.407416,1805.326721,15720.27167,12097.03267,0.71606552,0.924814344,1.526966691,1.526966691,-324.34298,431.11102
JVASP-1309,CaSe,225,Fm-3m,cubic,3D,2.1369,2.8824,-206.37164,240.0177,2634.081307,1985.858635,61848.49633,34471.62767,0.940896995,0.848917642,0.438036296,0.438036296,-202.53766,244.63403
JVASP-1257,UO3,221,Pm-3m,cubic,3D,1.8083,1.7174,-556.55663,303.89535,317.1392288,2503.759288,1023.838,27110.933,0.18732078,1.089982281,19.13529922,19.13529922,-582.84532,283.32774
JVASP-1366,Li3Sb,225,Fm-3m,cubic,3D,0.9191,1.2164,-149.88125,273.56157,1830.428219,5758.312373,81481.32633,76945.82233,0.555200153,1.968784371,0.299614596,0.299614596,-173.21756,248.20496
JVASP-2607,Na2CuP,63,Cmcm,orthorhombic,3D,0.7861,1.3009,-160.5041133,242.73579,1943.014833,1934.149437,71478.16533,27530.73767,0.489289145,0.75046987,0.621076031,0.621076031,-167.67245,259.9775367
JVASP-3546,K2PdCl4,123,P4/mmm,tetragonal,3D,1.5183,1.0098,-242.3800233,389.81554,1546.746501,1143.976757,23085.3305,8325.192533,0.693852309,0.608396229,3.282247996,3.282247996,-255.5443433,393.55735
JVASP-3633,PrCl3,176,P6_3/m,hexagonal,3D,4.4055,5.3932,-261.5294333,432.58499,971.2351275,1052.57154,13292.123,5581.986367,0.482780566,0.60576073,1.29993076,1.29993076,-306.0371333,418.7144867
JVASP-3081,NaAlTe2,140,I4/mcm,tetragonal,3D,1.6408,2.291,-71.957514,276.3816233,453.6356615,3261.492244,87514.34433,43952.20333,0.121193281,1.309053274,0.258845885,0.258845885,-94.727436,282.91774
JVASP-1468,CaCN2,166,R-3m,trigonal,3D,3.6529,5.1268,-226.5324933,283.7186733,2069.637711,1925.330277,41214.60033,24200.825,0.745630173,0.863175593,0.727492983,0.727492983,-158.85765,283.4994067
JVASP-1975,Ca2PI,166,R-3m,trigonal,3D,1.6024,2.1487,-227.5971667,346.8272367,2606.990897,1416.582772,50219.85767,10632.2198,0.991746718,0.73582823,0.53911805,0.53911805,-224.1567967,350.1820867
JVASP-3954,SBr,41,Aea2,orthorhombic,0D,1.7067,2.6384,-371.6442033,354.7423733,976.8002348,2322.688479,6956.399967,20113.51633,0.531308726,1.192273651,7.795126981,7.795126981,-423.2453067,400.83647
JVASP-3762,K2PdBr4,123,P4/mmm,tetragonal,3D,1.3057,1.2212,-209.0192467,393.4282633,1639.382964,1051.019526,32722.10133,6043.0184,0.648513897,0.592706285,2.420035547,2.420035547,-225.4683567,412.51613
JVASP-2667,Al2ZnTe4,82,I-4,tetragonal,3D,1.6985,2.4753,-156.9644867,319.30666,2277.668294,3000.660382,92208.19933,29413.17133,0.615757003,1.368316425,0.229264314,0.229264314,-146.3417633,327.78184
JVASP-3828,K2TcCl6,225,Fm-3m,cubic,3D,0.9946,2.0146,-321.66994,337.1194,1112.932614,1391.840148,10755.92867,12246.77867,0.627406104,0.773890524,1.799810232,1.799810232,-348.12674,359.31854
JVASP-3477,Nd3InN,221,Pm-3m,cubic,3D,0.1035,0.0153,-12.615326,-12.312793,324.2045065,305.5204589,2037145.7,2015241.7,0.006178517,0.005872674,1.42E-06,1.42E-06,na,na
JVASP-2292,BaZrO3,221,Pm-3m,cubic,3D,3.2504,3.8412,-239.9265,414.52306,2729.508189,2350.313874,47416.333,13678.185,1.049963634,1.215102651,0.650425336,0.650425336,-245.73029,418.71536
JVASP-4008,K4Br2O,139,I4/mmm,tetragonal,3D,1.0019,2.8926,-112.7954767,339.21187,719.8288931,1824.251289,56288.538,12971.15603,0.25163182,0.955982825,0.431736464,0.431736464,-107.8273033,353.3944967
JVASP-1453,AlCuO2,166,R-3m,trigonal,3D,2.0641,2.0617,-185.9524333,464.3848767,1199.933018,2812.554761,33498.13667,12568.42663,0.466896236,1.51464284,1.107414004,1.107414004,-171.5207867,470.9289733
JVASP-2709,K2PdF6,164,P-3m1,trigonal,3D,2.0104,1.9154,-423.38395,453.8348067,658.6002794,611.4123838,3603.216337,3109.4721,0.386238919,0.360200889,43.5420059,43.5420059,-420.44562,459.5821333
JVASP-3150,Ac2O3,164,P-3m1,trigonal,3D,3.7651,5.3308,-232.6876467,450.5849033,2219.829478,1343.572236,38178.73033,6902.8258,0.763699664,0.766565939,0.286855312,0.286855312,-133.74571,422.12784
JVASP-1183,InP,216,F-43m,cubic,3D,0.8864,1.3874,-29.471664,259.2058233,145.8805466,3201.346214,167953.1167,47647.831,0.025081024,1.186433772,0.054404907,0.054404907,-33.89569,253.29204
JVASP-3441,Mn(GaSe2)2,82,I-4,tetragonal,3D,0.7209,na,-203.78528,270.4624067,818.8866831,2075.325068,21541.573,28364.703,0.371667062,0.952393987,1.949135256,1.949135256,-201.6848533,282.40242
JVASP-3852,BiF5,87,I4/m,tetragonal,3D,1.589,2.2955,-208.3878367,522.2258033,967.5683362,355.3493087,21672.34633,1317.108767,0.457043628,0.211487415,1.123633809,1.123633809,-231.78834,494.4033667
JVASP-2940,Rb3Sb2Au3,166,R-3m,trigonal,3D,1.1407,na,-207.32849,293.0662333,2342.321517,3018.619585,59522.76233,35863.96533,0.771121928,1.357728512,0.685901133,0.685901133,-230.1685233,277.0290767
JVASP-3678,Rb2PbCl6,225,Fm-3m,cubic,3D,0.9023,2.0191,-105.80999,390.04014,617.0329291,1581.447522,55113.11967,10395.27967,0.218949695,0.889975049,0.386909754,0.386909754,-131.93314,411.07636
JVASP-3543,BaIF,129,P4/nmm,tetragonal,3D,4.0375,4.9939,-120.6939,363.6864567,844.2957042,1181.302088,59270.919,9267.60739,0.287589037,0.631948188,0.610585169,0.610585169,-132.00948,386.2204233