JID,Composition,Spg.numb.,Spg.symb.,Cryst.,Dimensionality,OPT SCF gap, MBJ gap,n-Seebeck,p-Seebeck,n-powerfact,p-powerfact,n-cond,p-cond,n-ZT,p-ZT,Avg.elec.mass,Avg.hole mass,n-mp-Seeb,p-mp-Seeb
JVASP-7719,NaErO2,166,R-3m,trigonal,3D,4.5192,6.4307,-161.72648,467.10691,1408.413667,1891.985535,53483.88867,8643.122333,0.434120285,1.053185219,0.459880396,0.459880396,-103.6409933,468.5427533
JVASP-7720,NbTe2,12,C2/m,monoclinic,2D,0.0009,na,1.452193667,0.827655667,649.58481,634.1321724,657205.6567,668141.6933,0.02619823,0.02545648,6.93E-06,6.93E-06,na,na
JVASP-7721,VTe2,12,C2/m,monoclinic,2D,0.0019,0.0049,27.39646703,27.20797507,656.9235309,662.8168128,383346.3933,390617.8367,0.044462937,0.045132324,1.07E-05,1.07E-05,na,na
JVASP-7722,Dy2Fe2Si2C,12,C2/m,monoclinic,3D,0.0045,0.008,-7.616693467,-7.4036909,78.74840804,74.12800552,1091202.003,1086487.453,0.002343456,0.002254612,2.86E-06,2.86E-06,na,na
JVASP-7723,SrS3,41,Aea2,orthorhombic,3D,1.0649,2.156,-278.9405267,181.8090733,1693.998949,992.6757108,19666.0644,29858.316,0.797798957,0.437475372,1.619224071,1.619224071,-266.8907433,180.3163033
JVASP-7724,LiMgSnPt,216,F-43m,cubic,3D,0.0034,na,6.234716033,6.066663367,323.5303814,307.892486,8323034.867,8365642.4,0.001598175,0.001512879,3.37E-07,3.37E-07,na,na
JVASP-7725,LiPt,187,P-6m2,hexagonal,3D,0.0149,na,-8.216545633,-8.3010227,554.4964444,552.8690326,9709744.533,9703464.367,0.00961778,0.009753613,5.62E-07,5.62E-07,na,na
JVASP-7726,BaSnHg,194,P6_3/mmc,hexagonal,3D,0.0095,na,-39.149315,19.93579403,764.6334421,164.4612055,296535.6527,282496.5133,0.041450318,0.023881032,2.24E-05,2.24E-05,na,na
JVASP-7727,LiCeSn,216,F-43m,cubic,3D,0.0032,0.0002,37.58261,36.741363,1277.716035,1227.094409,904608.0967,909007.4667,0.079045028,0.075551422,3.38E-06,3.38E-06,na,na
JVASP-7728,TiCuHg2,216,F-43m,cubic,3D,0.0025,0.0144,13.277193,12.28800033,452.170289,388.9688907,2565012.5,2576039.033,0.008174481,0.006975994,1.05E-06,1.05E-06,na,na
JVASP-7729,HoMg,221,Pm-3m,cubic,3D,0.0059,0.0277,-7.2959651,-7.7386355,136.3413607,153.0078588,2561309.9,2554965,0.002285381,0.002564485,1.06E-06,1.06E-06,na,na
JVASP-7730,HoCdCu4,216,F-43m,cubic,3D,0.0291,na,10.02731333,8.4158007,487.8858382,345.3393421,4852315.6,4875904.3,0.005040258,0.003552311,5.50E-07,5.50E-07,na,na
JVASP-7731,ErCdCu4,216,F-43m,cubic,3D,0.0629,na,5.541679667,3.934239433,157.2269471,79.43952124,5119695.667,5132335.567,0.001539925,0.000776139,5.21E-07,5.21E-07,na,na
JVASP-7732,KAg2AsO4,121,I-42m,tetragonal,3D,0.6104,1.6826,-87.02602367,219.1586133,562.036328,1012.572788,74072.01833,20780.29833,0.169111031,0.433988056,0.004554414,0.004554414,-84.10132467,243.3827167
JVASP-7733,Ag3Pt,221,Pm-3m,cubic,3D,0.0082,na,-0.15790569,-0.52483663,0.239863001,2.649280744,9619836.8,9617887.8,1.05E-06,1.16E-05,2.90E-07,2.90E-07,na,na
JVASP-7734,UAu2,191,P6/mmm,hexagonal,3D,0.0039,na,11.82126023,11.5662493,474.3247568,452.369247,2658684.433,2663986.833,0.00804325,0.007655881,1.04E-06,1.04E-06,-15.31116033,-15.374497
JVASP-7735,RbAu5,191,P6/mmm,hexagonal,3D,0.0445,na,10.261709,10.00886,934.6732415,841.5882497,4163010.133,4204279.9,0.010759679,0.00971484,7.14E-07,7.14E-07,na,na
JVASP-7736,TaRu,221,Pm-3m,cubic,3D,0.0063,0.0117,-26.541276,-26.588855,5497.311547,5496.951715,7803811.2,7775398.4,0.028809129,0.028863807,3.60E-07,3.60E-07,na,na
JVASP-7737,Li2MgIn,225,Fm-3m,cubic,3D,0.0223,na,3.207167667,3.143214967,90.34198342,86.99984573,8783068.933,8805830.367,0.000419326,0.000402933,3.19E-07,3.19E-07,na,na
JVASP-7738,LuInPd2,225,Fm-3m,cubic,3D,0.0039,na,7.3489919,7.233416167,420.8697839,409.3878369,7792776.3,7824345.7,0.002217591,0.00214892,3.59E-07,3.59E-07,na,na
JVASP-7739,Hg,166,R-3m,trigonal,3D,0.0335,0.0082,-2.07275753,-1.085092807,73.94687564,59.89908551,7842162.733,7837024.7,0.000414988,0.000307419,3.78E-07,3.78E-07,0.839364517,1.290488873
JVASP-7740,CrSi2,180,P6_222,hexagonal,3D,0.0253,0.0728,-292.5934133,298.52806,1216.228791,1826.019757,12186.65903,19278.85933,0.535661046,0.801708244,0.041366996,0.041366996,-312.9898233,310.9409767
JVASP-7741,CaAgP,189,P-62m,hexagonal,3D,0.1131,na,-72.048723,72.028735,466.4877572,682.881534,91654.59067,121431.9073,0.120569257,0.150993108,0.000319706,0.000319706,-57.986763,57.86340733
JVASP-7742,Li5Tl2,166,R-3m,trigonal,3D,0.0031,na,5.167373543,5.077957303,536.7204568,522.9622043,6629635.933,6654461.133,0.003406595,0.003288689,4.25E-07,4.25E-07,na,na
JVASP-7743,Mo3Pt,223,Pm-3n,cubic,3D,0.0018,na,8.1011771,8.0317906,267.8069232,263.7663376,4080614.3,4088788.2,0.002665799,0.002625514,6.82E-07,6.82E-07,6.5020774,6.5547595
JVASP-7744,MnCN2,166,R-3m,trigonal,3D,0.0079,na,-20.767321,116.154513,314.7537609,1689.648393,61217.821,73986.13767,0.045693973,0.21268849,0.000181922,0.000181922,na,na
JVASP-7745,BaAg2,191,P6/mmm,hexagonal,3D,0.0053,0.0047,-14.14864533,-15.00906,606.5933768,680.019551,2952098.667,2899877.767,0.008381422,0.009470391,1.01E-06,1.01E-06,-16.02460767,-16.48253
JVASP-7746,NaSnN,186,P6_3mc,hexagonal,3D,1.1557,2.1971,-103.2244507,380.86843,965.2387741,3540.02573,90421.70767,27332.9394,0.227733576,1.617265207,0.223359558,0.223359558,-75.815321,400.99626
JVASP-7747,Sr2N,166,R-3m,trigonal,3D,0.0064,na,-4.201906367,-4.750056,190.3427432,195.5084229,1258571.79,1242597.867,0.005643565,0.005607724,4.96E-06,4.96E-06,na,na
JVASP-7748,PrZn5,191,P6/mmm,hexagonal,3D,0.0042,na,10.97201743,11.04715603,569.6352169,555.4802585,3483669.4,3509194.733,0.005878105,0.005735625,8.35E-07,8.35E-07,na,na
JVASP-7749,ScSnPt,216,F-43m,cubic,3D,0.001,na,3.794473133,3.7487191,134.118155,131.1461631,9315037.467,9332323.633,0.000588693,0.000574539,3.02E-07,3.02E-07,na,na
JVASP-7750,NdTeF,129,P4/nmm,tetragonal,3D,0.0835,1.0322,-123.12227,210.7564,1053.963345,2196.477056,64931.81933,55856.17853,0.321199021,0.769821944,0.655255922,0.655255922,-110.6908867,200.7700733
JVASP-7751,Tb2SO2,164,P-3m1,trigonal,3D,3.095,4.5442,-203.77079,300.6485167,1616.559631,2004.588413,39382.86933,21106.48617,0.668051596,0.946747889,0.691785248,0.691785248,-206.3515733,299.8543467
JVASP-7752,Dy2SO2,164,P-3m1,trigonal,3D,3.1251,4.5969,-205.0774633,300.63776,1625.209673,2042.008757,39102.15233,21515.2544,0.670688341,0.961248564,0.704944416,0.704944416,-208.9291433,299.65502
JVASP-7753,Ho2SO2,164,P-3m1,trigonal,3D,3.1551,4.6238,-206.53149,300.2003467,1646.379259,2063.084729,39021.17033,21813.7521,0.67739857,0.965893196,0.712647423,0.712647423,-213.07268,299.24243
JVASP-7754,Er2SO2,164,P-3m1,trigonal,3D,3.1863,4.6642,-208.3322,299.90319,1683.588668,2096.134512,39274.613,22247.24343,0.688831133,0.9765436,0.697859199,0.697859199,-220.5341833,299.4107733
JVASP-7755,Lu2SO2,164,P-3m1,trigonal,3D,3.2228,4.8336,-225.7636867,300.50135,2001.366617,2182.218044,39639.538,23253.86147,0.814497988,1.006292946,0.706343702,0.706343702,-215.97473,298.3075667
JVASP-7756,NbAgO3,221,Pm-3m,cubic,3D,1.4262,1.6399,-273.96973,444.75838,4577.231988,2012.435831,60981.452,10173.579,1.65823123,1.063741977,0.434377385,0.434377385,-275.00712,438.958
JVASP-7757,CdTe,186,P6_3mc,hexagonal,3D,0.7136,1.7567,-30.181284,247.14023,143.8616649,1770.480458,157358.24,29105.68133,0.026476117,0.794936031,0.082467708,0.082467708,-33.25210167,258.81134
JVASP-7758,P,12,C2/m,monoclinic,3D,2.3442,2.9104,-151.5467033,353.71006,1100.327087,1662.443185,46919.31367,13556.38867,0.378701259,0.877217177,0.817348229,0.817348229,-318.0429767,401.08328
JVASP-7759,Y2SO2,164,P-3m1,trigonal,3D,3.1156,4.278,-210.0811267,307.8521833,1635.933544,2021.418895,37532.54,20612.2517,0.688587867,0.961712082,0.730385269,0.730385269,-211.5249433,305.4159067
JVASP-7760,BaTiO3,99,P4mm,tetragonal,2D,1.7487,2.1691,-214.49979,376.3197867,1939.442813,1703.556381,39789.6542,16212.18373,0.724490779,0.83355251,3.327579218,3.327579218,-212.57473,285.4201733
JVASP-7761,MgS,216,F-43m,cubic,3D,3.5821,5.064,-91.503303,423.51008,726.0795012,2966.852469,86718.27567,16541.25467,0.188236705,1.520059432,0.307631514,0.307631514,-76.400462,409.4413
JVASP-7762,MgTe,216,F-43m,cubic,3D,2.4947,3.494,-73.22007333,358.67148,588.4506352,3224.294934,109761.42,25063.46267,0.125594403,1.510572101,0.196885271,0.196885271,-58.814985,342.81913
JVASP-7764,Sc2O3,164,P-3m1,trigonal,3D,3.5655,4.4798,-273.6582867,229.83646,1702.48883,1131.346644,23549.24633,21907.99533,0.809435111,0.511036868,1.337483796,1.337483796,-265.4078,228.6242933
JVASP-7765,Y2O3,164,P-3m1,trigonal,3D,4.2095,5.3653,-215.7165267,286.9265667,1449.762593,1185.723883,30587.13767,15172.29333,0.617246578,0.575610359,0.679527589,0.679527589,-254.44533,310.3124167
JVASP-7766,Tb2O3,164,P-3m1,trigonal,3D,4.2122,5.734,-223.7572767,307.08829,1622.276664,1109.788051,30817.98233,12221.26467,0.663275688,0.556472598,0.662909833,0.662909833,-249.8162633,335.9390733
JVASP-7767,Dy2O3,164,P-3m1,trigonal,3D,4.2771,5.821,-228.9759267,293.59428,1694.567918,1121.11617,30436.735,13542.80067,0.68348697,0.552303244,0.664275998,0.664275998,-262.20704,323.17252
JVASP-7768,Ho2O3,164,P-3m1,trigonal,3D,4.3415,5.886,-236.6269167,280.6504167,1820.031228,1123.752301,30238.16867,14939.90633,0.722840073,0.543802011,0.646697595,0.646697595,-257.0220233,310.9376267
JVASP-7769,Er2O3,164,P-3m1,trigonal,3D,4.4226,5.9872,-248.0074933,269.76741,2035.299136,1132.486681,30489.98633,16407.90533,0.800210919,0.538798764,0.647767287,0.647767287,-204.09069,301.52614
JVASP-7770,Tm2O3,164,P-3m1,trigonal,3D,4.4912,6.1316,-260.4969533,260.2251133,2331.16191,1128.723731,31487.067,17614.43967,0.918496035,0.52873345,0.670399747,0.670399747,-140.7207,291.10398
JVASP-7771,Lu2O3,164,P-3m1,trigonal,3D,4.458,6.3309,-190.0527667,244.14781,1589.346049,1117.288315,41319.35533,19894.90267,0.507640987,0.508887219,0.528358538,0.528358538,-109.5909733,276.72719
JVASP-7772,YN,216,F-43m,cubic,3D,2.2334,3.5477,-430.69116,432.70623,3755.620694,3763.438692,20246.493,20100.11533,1.913275594,1.905940217,1.251879928,1.251879928,-392.82194,443.19508
JVASP-7773,SrHfO3,99,P4mm,tetragonal,3D,3.8856,5.4381,-224.4412267,429.0966933,2505.756907,2314.771578,49742.69133,12571.00633,0.954790293,1.223536333,0.652596156,0.652596156,-236.70354,412.7469267
JVASP-7774,CdO,186,P6_3mc,hexagonal,3D,0.7936,1.5115,-49.37057667,87.42696567,286.0398062,204.4520518,117526.48,25319.71433,0.064793415,0.051950219,0.000239351,0.000239351,-50.242772,123.18229
JVASP-7775,Ca3N2,164,P-3m1,trigonal,3D,1.9829,3.1164,-291.8251333,432.9790767,1876.755272,1467.34842,21296.97963,7885.464067,0.885464777,0.835452323,1.747811916,1.747811916,na,na
JVASP-7776,BN,136,P4_2/mnm,tetragonal,3D,5.0553,6.3491,-161.3994433,291.5109133,1629.953843,2000.064888,62797.16333,23533.221,0.554309632,0.91820778,0.441221194,0.441221194,-158.1511433,265.4418567
JVASP-7777,LaF3,225,Fm-3m,cubic,3D,6.1435,4.5311,-508.80186,564.098,630.2682017,670.4402811,2434.602233,2106.934233,0.372403944,0.39737838,6.22636833,6.22636833,-560.16739,586.2794
JVASP-7778,Na4CO4,5,C2,monoclinic,3D,2.4768,6.1414,-135.5084733,505.0280933,857.4733398,288.1440998,46719.011,1201.565013,0.326056444,0.171899029,0.563953046,0.563953046,-125.2420333,506.3315767
JVASP-7779,SmSnAu,216,F-43m,cubic,3D,0.1221,0.1025,-189.629,168.40628,2921.174726,1650.320581,81235.90533,58190.45467,0.642379639,0.34180735,0.000702395,0.000702395,-157.14704,142.1942
JVASP-7780,AlN,225,Fm-3m,cubic,3D,4.8926,5.6989,-195.33344,354.90263,2289.580768,3110.016985,60007.11833,24691.321,0.806502234,1.432842427,0.469277617,0.469277617,-178.67317,344.18935
JVASP-7781,ScTlTe2,166,R-3m,trigonal,3D,0.0829,0.235,-122.6112067,69.599717,2274.20128,456.874838,35558.08267,99115.40867,0.615615018,0.112462167,0.000459259,0.000459259,-116.1445367,69.87507867
JVASP-7783,Ca2GeO4,139,I4/mmm,tetragonal,3D,3.06,4.6769,-131.4463867,329.8959333,880.3747698,1608.959128,47014.05133,15784.45767,0.313622216,0.837656541,0.573566991,0.573566991,-114.52045,327.75682
JVASP-7784,LiC,71,Immm,orthorhombic,3D,3.482,3.381,-212.4140067,445.75442,1733.418232,2119.374292,40972.99433,10309.51317,0.613883418,1.101964681,0.789744884,0.789744884,-217.9615033,419.95372
JVASP-7785,SnS,63,Cmcm,orthorhombic,2D,0.1268,1.5566,-182.90097,241.8028033,1967.731793,1758.7044,59024.68167,30435.34767,0.66414921,0.73094376,0.615368523,0.615368523,-221.7109233,271.1375
JVASP-7786,ZnSnF6,148,R-3,trigonal,3D,3.7754,5.6071,-138.2851133,480.5948567,867.3275751,693.4218976,45339.019,3009.795233,0.334240905,0.410182858,0.57559611,0.57559611,-133.3252533,446.9472767
JVASP-7787,CdSnF6,148,R-3,trigonal,3D,3.8587,6.6868,-148.8883833,473.5098633,996.7471537,614.1371511,44996.109,2736.052833,0.386143827,0.363004419,0.668032804,0.668032804,-131.8368567,485.28483
JVASP-7788,LiNi2Sn,225,Fm-3m,cubic,3D,0.0027,na,-15.287446,-15.540923,1938.199567,1993.386946,8293323.767,8253496.9,0.009927411,0.010265899,3.39E-07,3.39E-07,na,na
JVASP-7789,Rb2O,225,Fm-3m,cubic,3D,1.6071,4.2543,-97.37969633,501.57918,676.0606002,1367.146683,71293.31267,5434.206167,0.21387956,0.790947092,0.394134452,0.394134452,-93.711433,504.75825
JVASP-7790,ZnPdF6,148,R-3,trigonal,3D,1.7089,1.6943,-438.2459,404.9831867,954.1856944,1039.105065,4977.5504,6370.950333,0.552864931,0.597856288,4.378461029,4.378461029,-426.4630867,429.3837633
JVASP-7791,UCdO4,166,R-3m,trigonal,3D,2.0812,1.9803,-444.70078,385.9620567,1074.474793,2313.386368,5571.715233,15575.583,0.616440039,1.24472964,177.7851633,177.7851633,na,na
JVASP-7792,ZnAgF3,221,Pm-3m,cubic,3D,1.7639,4.4938,-121.41886,454.7368,824.5913547,1345.182296,55932.789,6505.2043,0.290321589,0.75637639,0.50342733,0.50342733,-107.14271,395.33982
JVASP-7794,DyN,225,Fm-3m,cubic,3D,0.3975,1.1242,-138.05995,203.90989,2389.057253,2258.330222,125340.4167,54313.88467,0.536993938,0.575870464,0.001014542,0.001014542,-116.89383,155.93375
JVASP-7798,ZrIr3,221,Pm-3m,cubic,3D,0.0068,na,6.752843,6.859702,336.8736186,348.296671,7387435.4,7401825.2,0.001812521,0.0018692,3.82E-07,3.82E-07,na,na
JVASP-7799,Ba2Zn3(AsO)2,139,I4/mmm,tetragonal,3D,0.2277,na,-104.3679893,213.94753,1015.699191,2568.770434,112141.1497,45526.45663,0.232619038,0.894954646,0.028431033,0.028431033,-81.497378,187.2351013
JVASP-7801,Ge2Te5As2,164,P-3m1,trigonal,2D,0.0146,na,-254.5020467,243.3173267,7209.705366,5953.62273,119399.6617,100552.975,1.583894587,1.663810109,0.036379669,0.036379669,-233.79718,268.4022433
JVASP-7802,Se,148,R-3,trigonal,3D,1.2521,2.1175,-302.62609,405.11332,3129.673287,2093.617649,33958.84733,12750.74633,1.394902002,1.108881461,0.697208552,0.697208552,na,na
JVASP-7803,CdTe,152,P3_121,trigonal,3D,0.6718,1.0019,-30.620042,213.8872967,164.1205826,2336.141218,171676.2367,51011.101,0.027372017,0.835852483,0.002918501,0.002918501,-28.84334067,193.7908433
JVASP-7804,Se,152,P3_121,trigonal,3D,0.8982,2.2888,-131.7119067,284.12276,1330.955915,4218.836497,77479.75967,50802.66867,0.367482228,1.570916044,0.324005785,0.324005785,-144.3318033,298.1561667
JVASP-7805,TmMg,221,Pm-3m,cubic,3D,0.0142,0.0325,-7.8412699,-8.5113661,208.915509,245.5681951,3397800.5,3389796.1,0.002794568,0.003290399,7.91E-07,7.91E-07,na,na
JVASP-7806,Tl,139,I4/mmm,tetragonal,3D,0.0019,0.0106,5.398898367,5.201708567,425.8264809,401.2038692,14536964.67,14589999.33,0.001239869,0.001171026,1.94E-07,1.94E-07,na,na
JVASP-7807,YB2,191,P6/mmm,hexagonal,3D,0.0348,0.0203,-6.085838167,-6.304239433,204.0194478,218.4065082,5280481.767,5264452.8,0.001737323,0.001868168,5.34E-07,5.34E-07,-5.846986533,-5.939519967
JVASP-7808,HfSe3,11,P2_1/m,monoclinic,2D,0.0043,na,-87.85230667,102.577515,5799.87076,1593.463846,79969.73587,40202.92537,0.971523552,0.493068654,0.005973621,0.005973621,-172.1805397,192.6411433
JVASP-7809,ZrO2,225,Fm-3m,cubic,3D,3.4519,4.1734,-257.22877,317.54914,1668.917679,4974.476623,25222.94733,49331.63533,0.75915927,1.8976186,0.927022147,0.927022147,-261.96858,332.60703
JVASP-7810,NaSe,194,P6_3/mmc,hexagonal,3D,0.3553,1.8292,-91.61212033,358.74084,517.862552,1867.915399,60729.18467,15533.43747,0.171213665,0.971345069,0.30552983,0.30552983,-94.719356,371.8155167
JVASP-7811,ThNi5,191,P6/mmm,hexagonal,3D,0.0027,na,-5.8852926,-5.8554721,83.41849447,82.30443191,2332752.533,2331071.2,0.001613569,0.001591726,1.27E-06,1.27E-06,na,na
JVASP-7812,KZnAs,187,P-6m2,hexagonal,3D,0.2452,1.3553,-45.39450567,212.6214833,470.1754079,3268.437798,201657.7773,57665.04323,0.058884095,1.009715474,0.018018744,0.018018744,-43.654075,207.0511
JVASP-7813,MgSiN2,122,I-42d,tetragonal,3D,3.7015,5.1354,-137.83728,449.3215333,1089.280966,1257.112271,57232.09433,6235.9485,0.391319682,0.717741876,0.67882885,0.67882885,-110.11214,420.8652767
JVASP-7814,MgCN2,122,I-42d,tetragonal,3D,4.0037,5.3961,-149.3688533,175.71628,1042.582144,1078.720203,46924.739,35204.44767,0.396136778,0.427951753,0.714426032,0.714426032,-140.5911767,174.4010067
JVASP-7815,BeSiN2,122,I-42d,tetragonal,3D,3.8367,5.1676,-175.1374467,368.52996,2000.68748,2332.432788,65108.683,17275.09633,0.653155653,1.165454245,0.47970767,0.47970767,-168.3625667,401.6055067
JVASP-7816,CaC2,15,C2/c,monoclinic,3D,2.2434,2.9694,-171.8988133,391.0217867,1419.671506,1136.265309,49780.832,7484.124433,0.504848804,0.635569395,1.233313093,1.233313093,-145.23945,383.45845
JVASP-7817,MgPPt5,123,P4/mmm,tetragonal,3D,0.0059,na,9.816246967,9.662230367,405.3630145,397.5679219,3522782.733,3540652.967,0.004527114,0.004419302,7.84E-07,7.84E-07,na,na
JVASP-7818,P,64,Cmce,orthorhombic,3D,0.0386,1.8029,-152.44245,83.57107767,1987.109813,574.1269581,101105.753,83598.32967,0.421122983,0.127627538,0.000195097,0.000195097,-171.0711167,110.87964
JVASP-7819,Nb2O5,12,C2/m,monoclinic,3D,2.1697,2.8162,-197.5579333,356.75807,1221.840251,1387.144517,32966.53533,9967.198733,0.490271736,0.683631845,1.230941479,1.230941479,-203.1655933,371.4360467
JVASP-7820,Li2CuSb,216,F-43m,cubic,3D,0.0657,0.8471,-267.61334,209.06191,4525.583832,4933.478579,63191.563,112876.47,1.412190504,1.269035961,0.447736516,0.447736516,-246.4297,184.08631
JVASP-7821,BN,8,Cm,monoclinic,3D,1.6131,3.2379,-227.9903933,332.37322,2022.282674,1589.239477,39094.02393,14252.33247,0.733457903,0.788004661,6.08443244,6.08443244,-231.6603467,337.90922
JVASP-7822,CaCdGe,189,P-62m,hexagonal,3D,0.0401,0.0385,-75.60927667,-63.12663737,2887.21852,1740.060022,449861.95,382817.1667,0.20861857,0.125640569,8.21E-06,8.21E-06,na,na
JVASP-7823,TbSbPt,216,F-43m,cubic,3D,0.4934,0.3547,-67.16715867,178.71549,484.6199163,2339.492927,107420.5333,73248.26533,0.095397343,0.625271908,0.000368087,0.000368087,-127.85622,188.76556
JVASP-7824,TmSbPt,216,F-43m,cubic,3D,0.179,0.4287,-84.553777,179.77619,672.9313763,2741.191532,94124.949,84815.463,0.14434004,0.708057695,0.000368656,0.000368656,na,na
JVASP-7825,GePt3,12,C2/m,monoclinic,3D,0.0005,na,-4.3283646,8.140520533,267.2567108,260.3837715,492082.3067,492546.3167,0.012057754,0.012534904,7.54E-06,7.54E-06,na,na
JVASP-7826,RbTiS2,160,R3m,trigonal,3D,0.0029,na,-33.49678883,-32.66833464,129.9024677,132.3130934,439762.6773,438115.0393,0.051785942,0.054033077,2.72E-05,2.72E-05,na,na
JVASP-7827,Rb3Sb,194,P6_3/mmc,hexagonal,3D,0.1026,na,-56.822831,142.1125933,316.1141744,255.1394211,98079.69433,12363.27067,0.078767701,0.082546419,0.001025167,0.001025167,-51.23660633,70.93509667
JVASP-7828,SrCuP,194,P6_3/mmc,hexagonal,3D,0.0232,na,-50.94599633,41.34213433,227.3127351,437.8291276,131937.4623,150978.596,0.046660105,0.045526436,6.02E-05,6.02E-05,na,na
JVASP-7829,DySbPt,216,F-43m,cubic,3D,0.4617,0.3819,-67.214705,176.7341,471.432924,2279.523482,104349.7267,72979.917,0.096120591,0.603869139,0.000357958,0.000357958,na,na
JVASP-7830,ErSbPt,216,F-43m,cubic,3D,0.1776,0.4083,-82.99788567,181.82194,648.2260662,2681.475367,94100.60867,81111.27667,0.134811936,0.713470186,0.000421046,0.000421046,na,na
JVASP-7831,LiInGe,216,F-43m,cubic,3D,0.0031,na,-52.870002,25.50191,1043.665162,223.0134953,373372.6767,342914.4033,0.063192077,0.013918224,1.11E-05,1.11E-05,na,na
JVASP-7832,TbMg,221,Pm-3m,cubic,3D,0.0409,0.0063,-6.540452,-6.7529897,100.9462154,107.3410202,2359796.3,2353821.6,0.001754362,0.001863565,1.18E-06,1.18E-06,na,na
JVASP-7833,SnTe,216,F-43m,cubic,3D,0.0633,0.4822,-113.08258,124.60909,1118.546433,1511.62196,87470.69967,97351.74567,0.145179516,0.208827028,0.000161621,0.000161621,na,na