JID,Composition,Spg.numb.,Spg.symb.,Cryst.,Dimensionality,OPT SCF gap, MBJ gap,n-Seebeck,p-Seebeck,n-powerfact,p-powerfact,n-cond,p-cond,n-ZT,p-ZT,Avg.elec.mass,Avg.hole mass,n-mp-Seeb,p-mp-Seeb
JVASP-1873,NaFeO2,166,R-3m,trigonal,3D,0.2548,0.6894,-2.795354667,-1.759132,168.138992,178.8063197,109500.3867,109884.7907,0.035054707,0.036260866,8.25E-05,8.25E-05,na,na
JVASP-3525,K2PtCl4,123,P4/mmm,tetragonal,3D,1.6175,2.2048,-223.5392967,421.9407633,1576.603296,1647.4856,28035.1387,12657.93684,0.658077691,0.805973074,2.538355541,2.538355541,-235.70935,447.2029767
JVASP-3336,Dy2TeO2,139,I4/mmm,tetragonal,3D,1.2771,2.0234,-312.7400467,300.31795,1502.199126,4945.700778,15465.9594,52011.624,0.74301825,1.736372756,78.93934218,78.93934218,-303.64138,285.21636
JVASP-1648,KErTe2,166,R-3m,trigonal,3D,1.3307,2.0448,-249.71183,205.14901,3214.777548,1955.660636,50060.75367,42602.70967,1.176189944,0.735226779,0.577068967,0.577068967,-244.1893367,185.9181467
JVASP-3939,ThBrN,129,P4/nmm,tetragonal,2D,2.6469,na,-159.2322433,372.3563133,998.5010846,2581.723826,36497.277,20168.84283,0.400535281,1.283234122,0.730360161,0.730360161,-186.88155,389.6738267
JVASP-3831,IrCl3,12,C2/m,monoclinic,2D,1.7931,na,-398.7411533,431.2797933,1297.236998,967.1078251,8127.0257,5181.7226,0.72794681,0.565267612,2.749125822,2.749125822,-383.2013,406.5898233
JVASP-2106,TlF,57,Pbcm,orthorhombic,3D,3.1099,3.8021,-224.30653,451.2119533,1968.48612,1577.95262,39618.03133,7807.366033,0.807623715,0.897913415,0.840308019,0.840308019,-217.2152467,477.72245
JVASP-1498,NaInO2,166,R-3m,trigonal,3D,2.1545,4.1031,-83.87293567,529.5832267,564.7416465,1867.342249,80133.30933,6947.158333,0.164142121,1.062407112,0.310948574,0.310948574,-78.398346,533.7411933
JVASP-2859,K4HgP2,166,R-3m,trigonal,3D,1.0176,2.4018,-105.2048067,394.1859867,821.9058537,800.5772219,74417.448,5023.793833,0.225039298,0.465084421,0.325144727,0.325144727,-93.66364433,390.0322433
JVASP-1507,NaHoS2,166,R-3m,trigonal,3D,2.3282,3.2696,-254.0233833,321.4224767,2967.580412,2065.084261,45529.45433,20200.02533,1.177178095,0.997911986,0.620649193,0.620649193,-237.4224033,324.9536667
JVASP-1744,KNdTe2,166,R-3m,trigonal,3D,1.2554,1.81,-241.2915333,214.5236633,2955.449281,1741.833172,49685.95,37083.12433,1.109267246,0.700121584,0.562752804,0.562752804,-238.06159,200.4957467
JVASP-2571,K3Cu3P2,166,R-3m,trigonal,3D,1.3848,na,-235.16874,377.35272,3328.22915,2066.070257,59375.67733,14437.666,1.169560448,1.127314281,0.521416222,0.521416222,-229.5968933,373.0569933
JVASP-4044,KAuSe2,127,P4/mbm,tetragonal,3D,0.8587,1.6053,-331.8299233,299.0205533,4262.378107,1459.346989,32556.76627,17583.13157,1.487748015,0.722448635,3.023439094,3.023439094,-348.60418,321.5036267
JVASP-2088,BaS3,113,P-42_1m,tetragonal,3D,1.4624,2.4073,-229.4566033,310.0681733,1801.175102,1563.555733,35055.48033,15932.28767,0.753220803,0.788068652,0.824253031,0.824253031,-218.2835033,308.8813967
JVASP-3807,TmIO,129,P4/nmm,tetragonal,2D,3.4302,4.5069,-356.2994767,345.08951,1793.373321,4950.493744,13668.92033,40396.39883,0.939465122,1.990747458,2.291762072,2.291762072,-355.3199267,348.5537167
JVASP-1885,LaCuO2,166,R-3m,trigonal,3D,2.5832,na,-272.7092467,508.8770633,2353.196903,1792.198119,31727.838,6950.538133,1.049029139,1.019494056,0.853711348,0.853711348,-285.25162,515.9933967
JVASP-3555,Rb2TeCl6,225,Fm-3m,cubic,3D,2.4477,2.9561,-243.72793,360.99752,2504.313019,1593.699676,42157.807,12229.2,1.059074724,0.888675276,0.585007749,0.585007749,-265.29029,364.94766
JVASP-1657,RbNdS2,166,R-3m,trigonal,3D,2.2522,3.3944,-270.1189233,305.39219,3119.912591,1601.897217,42238.86533,17249.51843,1.289928306,0.784976956,0.696803796,0.696803796,-243.2336667,312.33638
JVASP-1918,HgI,139,I4/mmm,tetragonal,0D,1.4761,2.0667,-225.72287,368.6337267,5452.236243,2651.258857,109392.7003,20072.89867,1.07496015,1.311578984,0.838483664,0.838483664,-205.1694867,403.6215067
JVASP-3012,NaBeAs,194,P6_3/mmc,hexagonal,3D,1.4992,2.3225,-336.05901,254.7593967,3629.301489,3110.009008,34290.191,41440.02247,1.520266011,1.127449369,2.351481455,2.351481455,-293.8559633,245.9254633
JVASP-1951,NaBr,225,Fm-3m,cubic,3D,4.4044,6.8477,-92.01647767,438.24431,645.7722115,1960.696179,76269.016,10208.87133,0.195361755,1.053482017,0.350188362,0.350188362,-89.002257,438.5892
JVASP-3048,Yb4As2O,139,I4/mmm,tetragonal,3D,0.9797,1.8844,-94.613906,235.1313933,770.0688994,2130.383606,88086.86833,36570.91533,0.205791635,0.888669864,0.485577033,0.485577033,-89.317344,237.69447
JVASP-3039,Ba4Sb2O,139,I4/mmm,tetragonal,3D,0.1367,na,-88.829558,215.9734033,680.2337745,1798.543801,75642.43567,39436.15367,0.179489523,0.714717095,0.405875973,0.405875973,-82.928662,221.5803133
JVASP-3084,Na3SbS4,217,I-43m,cubic,3D,1.8918,2.8407,-262.40648,325.04412,1074.471007,1813.047893,15604.34667,17160.291,0.551247433,0.919115214,1.101255597,1.101255597,na,na
JVASP-2065,CaI2,164,P-3m1,trigonal,2D,3.4465,4.3738,-302.2526967,235.2211433,3422.672837,1165.48047,32402.3107,21989.223,1.431659876,0.544128508,1.705608362,1.705608362,-321.2405533,372.52078
JVASP-3882,Tl2TeCl6,225,Fm-3m,cubic,3D,2.4107,2.9472,-239.37979,385.65961,2561.452049,1327.499211,44700.38533,8925.3644,1.056529954,0.755633968,0.556756693,0.556756693,-258.51192,377.28707
JVASP-1828,LiErS2,166,R-3m,trigonal,3D,2.0399,2.7729,-233.8671867,275.2013433,2956.618427,1895.568557,53834.90933,28694.64133,1.115029716,0.848796575,0.507291348,0.507291348,-219.8990133,287.8850033
JVASP-3846,BPS4,23,I222,orthorhombic,1D,1.932,2.8112,-265.05258,324.70743,1505.730177,1656.255458,22978.58033,15334.133,0.719108551,0.836287396,1.702771267,1.702771267,-343.9249,331.0567967
JVASP-2484,NaSbF6,225,Fm-3m,cubic,3D,4.9183,6.8782,-196.82453,481.33399,962.9423991,630.4711948,24856.608,2721.273467,0.452207835,0.373719961,1.015323698,1.015323698,-191.51821,495.23899
JVASP-1849,Li2AgSb,216,F-43m,cubic,3D,0.0602,na,-173.61269,199.38378,4311.227504,4735.016474,143033.58,119108.25,0.743972113,1.220512139,0.001795761,0.001795761,-205.40572,188.19964
JVASP-2080,ZrCoBi,216,F-43m,cubic,3D,0.9859,1.03,-352.47047,430.79082,2609.927814,3603.246848,21007.91833,19416.06133,1.248654204,1.789935357,1.256390199,1.256390199,-346.97887,381.96787
JVASP-1813,KDyS2,166,R-3m,trigonal,3D,2.3391,3.4009,-273.62733,274.59835,3326.094568,1684.541119,43842.72667,22052.7585,1.358856322,0.799675518,0.682139108,0.682139108,-244.78885,268.2217233
JVASP-1732,SrCeN2,166,R-3m,trigonal,3D,1.2511,na,-393.0476067,436.33776,1350.353803,2653.125766,8715.905633,13907.30033,0.761686696,1.407417988,1.386889618,1.386889618,-466.94791,432.0480867
JVASP-1945,RbI,225,Fm-3m,cubic,3D,3.9687,5.8133,-98.76286933,400.95933,706.2332328,1439.869838,72403.69867,8956.175333,0.221589935,0.793878711,0.398814045,0.398814045,-94.600376,416.1876
JVASP-3036,BaNaP,189,P-62m,hexagonal,3D,0.8641,na,-129.6765567,151.79478,890.4202025,920.1485376,50457.38767,40719.852,0.294095398,0.320079882,0.526920334,0.526920334,-123.89424,163.5362667
JVASP-3906,CdBr2,186,P6_3mc,hexagonal,2D,2.7423,4.4452,-67.67948033,470.47731,417.8203488,1334.967192,93804.091,6158.986433,0.112449007,0.769057063,0.243789559,0.243789559,-89.18087667,482.91729
JVASP-4143,KBiO2,15,C2/c,monoclinic,2D,2.0022,3.3086,-181.3982367,278.0403367,1153.951981,1378.670891,35844.99067,17764.64963,0.48202474,0.623589188,1.02490083,1.02490083,-178.68448,275.6657567
JVASP-1459,TmNiSb,216,F-43m,cubic,3D,0.0865,0.0503,-269.20366,180.84721,3502.946317,2296.810407,48336.095,70226.58033,1.093487132,0.642323511,0.004255441,0.004255441,-270.62352,194.04689
JVASP-3264,CdPdF6,148,R-3,trigonal,3D,1.8825,1.9239,-433.39486,420.9311333,839.6474839,883.4702799,4490.422867,5017.126267,0.490471452,0.514888386,4.442670808,4.442670808,-420.0137333,443.5098367
JVASP-4059,SmBrO,129,P4/nmm,tetragonal,2D,4.4114,6.1025,-266.4661933,385.9926367,2155.760073,1570.477567,30508.338,10376.06147,0.80066643,0.862371291,0.698266114,0.698266114,-354.8800267,359.2424533
JVASP-1456,BaHgO2,166,R-3m,trigonal,3D,2.4144,3.3961,-166.2270467,460.4678367,998.1339507,2973.5148,36666.99933,13875.61207,0.39877661,1.566303492,0.810979319,0.810979319,-147.64887,456.6018233
JVASP-1576,RbSmO2,166,R-3m,trigonal,3D,3.5173,5.3508,-252.1336067,486.34036,2864.272233,1518.655913,45030.33233,6402.376167,1.159130451,0.868751434,0.656466961,0.656466961,-240.0670433,482.75899
JVASP-3870,Rb2SeCl6,225,Fm-3m,cubic,3D,2.3954,2.9307,-247.10386,353.398,2539.573511,1602.486825,41591.22667,12831.171,1.072087184,0.883209494,0.626033903,0.626033903,-263.27688,380.31375
JVASP-1450,NdTlS2,166,R-3m,trigonal,3D,1.7098,2.206,-335.8101167,120.2257967,3753.735783,801.9448668,30423.0488,55717.51967,1.645742275,0.270095571,2.926914767,2.926914767,-322.5136633,117.8609
JVASP-1588,RbTlO2,166,R-3m,trigonal,3D,0.9844,1.9569,-91.27765867,502.71088,568.7269696,1894.670333,67734.40933,7567.795733,0.180341241,1.079197657,0.321635226,0.321635226,-83.400813,503.08538
JVASP-3987,DyCl3,63,Cmcm,orthorhombic,2D,3.6046,5.0068,-216.4248,299.2869233,1161.109393,1489.865561,24360.74567,17353.25193,0.534403993,0.685825119,1.270535075,1.270535075,-278.2632133,311.2503733
JVASP-1912,InAgO2,166,R-3m,trigonal,3D,0.3919,1.3195,-87.47885767,390.3072467,589.9113124,3219.754543,76828.362,20854.585,0.175254229,1.576408768,0.096572422,0.096572422,-79.292342,318.8871233
JVASP-3843,KTlO,12,C2/m,monoclinic,3D,1.4996,2.5821,-156.9890933,328.1669867,1440.251756,1536.648324,58322.09567,14087.062,0.509781309,0.794922756,0.446071752,0.446071752,-153.6971167,343.5054867
JVASP-2373,Ga2HgSe4,82,I-4,tetragonal,3D,0.8722,2.0752,-52.93719967,301.5113333,338.7946226,2241.592835,119499.28,24687.349,0.071212733,1.023045653,0.14020872,0.14020872,-51.19589733,338.3246867
JVASP-1477,RbCeTe2,166,R-3m,trigonal,3D,0.0021,na,-144.9048567,-146.8204833,814.2732931,813.2315205,33533.26133,32499.872,0.353379764,0.355716742,0.000133318,0.000133318,na,na
JVASP-2838,K2PtSe2,71,Immm,orthorhombic,3D,1.019,1.503,-251.7652533,384.6251933,3547.490568,2294.015746,45077.87467,14938.4433,1.315301069,1.126149088,7.555866473,7.555866473,-240.46379,375.0341533
JVASP-1390,SrO,225,Fm-3m,cubic,3D,3.4049,4.9578,-236.79197,452.57008,2703.453561,3705.862639,48215.311,18093.294,1.062640324,1.815856498,0.625080875,0.625080875,-218.93746,444.97919
JVASP-3018,Yb(ZnP)2,164,P-3m1,trigonal,3D,0.8145,1.4693,-199.9400633,203.94723,3826.737723,2235.712449,90416.36167,53739.97133,0.972931322,0.81416513,0.438027423,0.438027423,-201.74271,199.9533
JVASP-3936,ThNCl,129,P4/nmm,tetragonal,3D,2.542,3.0481,-164.78139,374.9870433,1036.294832,3635.180072,38265.25133,33613.80487,0.430821532,1.549345505,0.83977514,0.83977514,-170.74305,423.2473567
JVASP-4101,Bi2Te2Se,166,R-3m,trigonal,2D,0.0398,na,-105.67669,202.7994967,1117.560331,3234.90573,103829.818,78980.44467,0.226010487,0.855442012,0.057174847,0.057174847,-72.75774067,299.25877
JVASP-2097,GaF3,167,R-3c,trigonal,3D,5.0305,7.9687,-114.23776,519.8508,671.4500001,540.8002863,51405.27467,2000.076233,0.241842926,0.320870471,0.400944739,0.400944739,-124.5285,518.7731867
JVASP-1216,Cu2O,224,Pn-3m,cubic,3D,0.1349,0.4878,-189.9174,359.10452,1081.136939,1927.568201,29974.448,14947.481,0.484644444,0.997222741,1.007517614,1.007517614,-189.9025,359.88886
JVASP-1726,RbLuSe2,166,R-3m,trigonal,3D,2.019,na,-239.65031,241.6544667,2897.28043,1860.718121,49901.521,30692.3199,1.082616591,0.798447987,0.565465683,0.565465683,-237.0007433,228.1501467
JVASP-1921,RbBr,225,Fm-3m,cubic,3D,4.4359,6.9325,-103.11955,449.90338,703.6794317,1424.084505,66174.83067,7035.536967,0.227993024,0.806572954,0.424170787,0.424170787,-103.95407,455.45565
JVASP-1990,CoCl2,166,R-3m,trigonal,2D,0.8698,0.0026,6.906984667,7.865767667,94.50864853,101.0146031,101021.034,101095.443,0.018520943,0.019307886,6.38E-05,6.38E-05,na,na
JVASP-2856,Na4CdP2,166,R-3m,trigonal,3D,0.7885,na,-124.3427833,340.64993,1290.226886,1984.178027,87673.41933,17004.83933,0.3075936,1.020989425,0.27548375,0.27548375,-76.75698333,337.1386
JVASP-2029,IBr,63,Cmcm,orthorhombic,1D,1.246,2.0638,-351.92226,418.42398,2175.907146,2845.187336,15965.72883,15905.37167,1.067854323,1.484246778,2.232297778,2.232297778,-358.77317,336.1375067
JVASP-2259,YOF,166,R-3m,trigonal,3D,5.2315,6.5079,-334.5082833,421.6851533,2054.911109,1400.929405,19555.42427,9959.8257,0.989080354,0.764852463,60.76922763,60.76922763,-340.5903533,447.6637833
JVASP-1483,KErS2,166,R-3m,trigonal,3D,2.3625,na,-253.99976,269.11607,2959.495937,1765.983575,45446.351,24756.29233,1.175396382,0.80466645,0.626740786,0.626740786,-244.2747733,261.3589733
JVASP-1678,SrZrN2,166,R-3m,trigonal,3D,0.0257,na,-173.2819767,213.0952833,2568.170037,1722.627676,85507.556,38494.727,0.753734745,0.66137218,0.078674587,0.078674587,-162.8005133,200.99817
JVASP-3552,PbClF,129,P4/nmm,tetragonal,3D,3.8163,5.0229,-105.63253,382.1488833,713.0739763,1464.274619,63247.21567,9181.931967,0.228888738,0.794530548,0.383485652,0.383485652,-119.87577,376.18046
JVASP-2676,MgPdF6,148,R-3,trigonal,3D,1.9414,1.8904,-470.99677,435.9055,339.7725572,934.3317627,1529.961467,4935.5574,0.202761943,0.543026122,11.61282344,11.61282344,-453.68163,451.36505
JVASP-3237,ScTlS2,194,P6_3/mmc,hexagonal,3D,0.9978,1.4275,-345.42512,113.9968897,2820.194958,960.0968211,23091.86833,90358.702,1.334545141,0.252340508,1.281877928,1.281877928,-336.5501,129.2649267
JVASP-3510,BiI3,148,R-3,trigonal,2D,2.3652,2.9406,-282.45864,427.1587867,1004.740466,728.5398517,14474.55497,4003.662333,0.521143204,0.427225907,2.187898794,2.187898794,-285.8241533,427.39596
JVASP-3918,SmBr3,63,Cmcm,orthorhombic,2D,2.6911,4.0014,-214.64872,257.2380567,1150.068605,1431.637599,23106.37467,22902.08553,0.526694819,0.629141805,1.252803769,1.252803769,-271.1278067,284.02007
JVASP-3990,ErSeI,59,Pmmn,orthorhombic,2D,2.1941,2.9213,-300.3762433,285.3174633,2681.080518,2225.680281,28968.347,27672.34567,1.124753257,1.037714792,0.957243035,0.957243035,-283.4407,266.9780467
JVASP-1666,RbHoS2,166,R-3m,trigonal,3D,2.3362,3.5441,-267.0714167,277.2574833,3302.619734,1680.843503,45826.15633,21771.32873,1.333131779,0.796755556,0.652346267,0.652346267,-239.2492267,278.3948767
JVASP-1906,NaN3,166,R-3m,trigonal,3D,3.9713,5.2954,-344.6645333,422.63819,2009.154704,1197.067053,16900.39833,6604.3252,1.016264149,0.669313201,1.637503827,1.637503827,-346.6839167,430.7861433
JVASP-1606,NaErSe2,166,R-3m,trigonal,3D,1.958,2.7281,-250.1550167,274.1964,3034.505533,2111.890721,47829.483,28384.49567,1.170061663,0.93903658,0.588557694,0.588557694,-238.9906733,276.4605967
JVASP-2256,ZnSiAs2,122,I-42d,tetragonal,3D,0.8809,1.852,-165.0694433,238.1390567,3471.442327,2735.865772,128645.2467,48280.141,0.633781464,0.975677959,0.08649129,0.08649129,-186.9119533,230.2021733
JVASP-2946,Sr2ZnN2,139,I4/mmm,tetragonal,3D,0.9103,1.569,-302.9108133,364.6672,3248.514312,2245.24907,35796.20233,23465.4814,1.188688794,1.027367076,0.662547319,0.662547319,-158.6061267,341.76425
JVASP-2307,K2TiF6,164,P-3m1,trigonal,3D,4.7,5.0177,-513.03089,520.4082833,120.6961271,379.7914071,449.37194,1400.582767,0.07236036,0.225924197,40.06501882,40.06501882,-516.9521367,527.4970367
JVASP-2415,CdSnP2,122,I-42d,tetragonal,3D,0.7613,1.2146,-42.42224467,243.2179867,252.2456975,2570.90605,140180.5233,43477.46367,0.04285398,0.939183258,0.003601238,0.003601238,-52.909501,240.67427
JVASP-1237,SrTiO3,140,I4/mcm,tetragonal,3D,1.9061,na,-317.4861067,421.14435,3843.509789,2317.543882,38139.50567,13336.405,1.653311479,1.226371502,0.683453878,0.683453878,-316.5027467,416.4808067
JVASP-3819,K2AgBi,20,C222_1,orthorhombic,3D,0.9483,1.6414,-99.90202667,379.6258733,735.7423822,1816.169289,71490.743,12688.69733,0.195463978,0.977222779,0.224189821,0.224189821,-64.214232,370.7469567
JVASP-3822,Na2Pd3O4,71,Immm,orthorhombic,3D,0.0708,0.4292,-350.7304233,280.3458967,1510.293855,2116.90521,12741.51443,19647.8136,0.696974111,0.877088303,1.504310777,1.504310777,na,na
JVASP-4053,Ba(MgBi)2,164,P-3m1,trigonal,3D,0.2145,1.1512,-176.6371067,205.99385,3610.191366,2343.08608,93341.51633,55408.94467,0.800031083,0.839935702,0.108108175,0.108108175,-156.673607,198.3372033
JVASP-3945,Ca3AsCl3,221,Pm-3m,cubic,3D,1.7131,2.4688,-239.16938,215.36705,2567.837534,1993.692859,44890.701,42983.298,1.006683448,0.802758285,0.676701949,0.676701949,-246.99541,219.41133
JVASP-1876,CrAgO2,166,R-3m,trigonal,3D,0.0239,0.0068,-202.53629,391.69542,1302.972571,1359.713711,40482.40867,8714.7175,0.454637387,0.745084614,0.693173026,0.693173026,na,na
JVASP-2085,SiRu,198,P2_13,cubic,3D,0.0264,0.0648,-105.9782,-27.586318,994.6951761,63.32527432,88563.941,83212.698,0.089004518,0.005449455,0.000358089,0.000358089,-111.01417,-0.73005211
JVASP-4131,Tb4Se3N2,12,C2/m,monoclinic,3D,1.3966,na,-225.37642,212.9027967,1700.558566,1520.510807,28221.81107,32122.9429,0.689448622,0.591635459,1.95549712,1.95549712,-222.38395,217.55631
JVASP-4035,TaI2O,12,C2/m,monoclinic,2D,0.8715,na,-198.7034433,343.8524,1851.537769,1344.256381,33253.8575,11403.23767,0.69923827,0.714230638,1.754209204,1.754209204,-218.8012533,338.52012
JVASP-2130,Au2S,224,Pn-3m,cubic,2D,2.1492,2.6248,-238.04702,364.63484,4179.321806,2112.620812,73753.106,15889.317,1.311920857,1.086669122,0.406221549,0.406221549,-150.04203,357.74243
JVASP-3288,AlAgTe2,122,I-42d,tetragonal,3D,1.0741,1.9935,-46.063098,264.0456,248.3165733,1975.836439,117079.4533,28819.882,0.054185921,0.848694072,0.127468827,0.127468827,-50.586216,264.01235
JVASP-2014,RbH,225,Fm-3m,cubic,3D,2.9705,5.0731,-246.16698,341.53526,3012.708046,2616.72849,49716.14567,22433.011,1.165504719,1.262824236,0.601927409,0.601927409,-226.66224,353.54894
JVASP-3708,BaHCl,129,P4/nmm,tetragonal,3D,3.5816,4.8377,-120.3583033,408.01661,813.1564218,1105.897683,54875.27867,6596.994867,0.285204404,0.622047878,0.484582441,0.484582441,-138.9558367,411.59647
JVASP-3408,In2HgTe4,82,I-4,tetragonal,3D,0.5042,1.349,-84.30416,247.3489333,886.2933985,2574.080695,124255.8067,42439.40167,0.163538326,1.010919316,0.090431154,0.090431154,-84.94922567,271.0335833
JVASP-3591,K2SeBr6,225,Fm-3m,cubic,3D,1.5275,2.1607,-195.0893633,364.36391,2530.341644,2659.112715,66483.21,20029.31233,0.872382771,1.387022787,0.389883295,0.389883295,-207.00945,376.00961
JVASP-2700,ThSeO,129,P4/nmm,tetragonal,3D,0.9692,1.329,-131.52126,210.5892367,922.0973299,1567.311875,54563.53267,35509.73067,0.325793295,0.650777707,0.672691887,0.672691887,-134.9700667,189.9363567
JVASP-2445,Tl3VS4,217,I-43m,cubic,3D,1.8925,1.8087,-387.45331,411.53749,1584.048337,2205.977936,10551.876,13025.13867,0.88842253,1.200397848,1.921117125,1.921117125,-399.02334,429.91431
JVASP-4050,Ca(MgBi)2,164,P-3m1,trigonal,3D,0.1864,1.1388,-186.88594,184.8750933,3842.287754,1716.656457,99700.975,52308.497,0.863074728,0.616328566,0.101713699,0.101713699,-158.6994533,182.9931967
JVASP-2712,KOsF6,148,R-3,trigonal,3D,1.16,3.5584,-426.20698,423.61076,123.9791416,163.4430711,681.2414133,916.1474867,0.07426189,0.09768788,19.1865441,19.1865441,na,na
JVASP-3690,KMgH3,221,Pm-3m,cubic,3D,3.4712,5.4997,-48.680801,266.24773,313.3575579,2431.525901,132228.4,34301.023,0.064515979,1.044024221,0.184313257,0.184313257,-96.103816,267.68859
JVASP-2928,RbLiSe,129,P4/nmm,tetragonal,3D,2.5758,4.2459,-74.887812,339.0236233,440.5489207,1438.790477,79204.195,12361.5285,0.129070091,0.7339303,0.258547684,0.258547684,-78.598827,340.5941367
JVASP-3423,KInTe2,140,I4/mcm,tetragonal,3D,1.1146,na,-151.32213,272.3088633,1334.163537,2348.376148,59611.539,32408.67167,0.39719908,1.040653933,0.396666483,0.396666483,-142.2198367,277.29983
JVASP-1690,NaYS2,166,R-3m,trigonal,3D,2.3255,3.1023,-259.3717533,333.90701,2885.780874,2085.795138,42503.41233,18645.03767,1.172944173,1.034220356,0.654562222,0.654562222,-245.8633067,332.9304
JVASP-1432,NaTlO2,166,R-3m,trigonal,3D,0.2159,2.0677,-76.635582,490.86816,488.2054024,1758.412005,82972.122,7506.4389,0.138714902,0.974153842,0.255330088,0.255330088,-71.97004067,496.8434733
JVASP-3000,Ba(MgSb)2,164,P-3m1,trigonal,3D,0.9118,1.2753,-222.63318,226.32378,3728.994355,2492.757406,68452.577,48737.389,1.118570343,0.9351007,0.78956757,0.78956757,-214.8362867,223.42689