JID,Composition,Spg.numb.,Spg.symb.,Cryst.,Dimensionality,OPT SCF gap, MBJ gap,n-Seebeck,p-Seebeck,n-powerfact,p-powerfact,n-cond,p-cond,n-ZT,p-ZT,Avg.elec.mass,Avg.hole mass,n-mp-Seeb,p-mp-Seeb
JVASP-4456,Nb2CS2,166,R-3m,trigonal,2D,0.0003,na,-11.0905932,-11.55452427,1077.821668,1091.918384,2738828.777,2701472.04,0.012450042,0.012575923,1.86E-06,1.86E-06,-7.309357,-7.936287333
JVASP-119,Rb2Te,225,Fm-3m,cubic,3D,1.8872,3.439,-89.33923733,484.24921,653.2595779,693.2552097,81846.72467,2956.346267,0.192173355,0.409998151,0.363276766,0.363276766,-85.19755,507.43545
JVASP-4310,Fe5Si3,193,P6_3/mcm,hexagonal,3D,0.0053,0.0074,-22.28411867,-22.29997683,665.9189853,666.8188613,352867.5367,351065.0667,0.044285736,0.044387051,9.70E-06,9.70E-06,-1.203976767,-1.493672633
JVASP-4471,KPF6,148,R-3,trigonal,3D,7.5551,9.807,-160.0888833,429.0368667,958.4025576,332.381393,37396.23367,1828.172367,0.399887645,0.197195032,0.749273659,0.749273659,-150.49119,412.0466167
JVASP-269,SrTiO3,140,I4/mcm,tetragonal,3D,1.9061,2.3688,-317.4861067,421.14435,3843.509789,2317.543882,38139.50567,13336.405,1.653311479,1.226371502,0.683453878,0.683453878,-316.5027467,416.4808067
JVASP-49,C,194,P6_3/mmc,hexagonal,2D,0.0421,na,-108.917309,116.51059,1788.454167,1381.740246,249933.9877,206338.6261,0.16432988,0.134022376,0.001152305,0.001152305,-90.75178867,96.43899633
JVASP-47,C,194,P6_3/mmc,hexagonal,2D,0.3101,na,-79.010758,83.73097467,2833.359457,2866.338453,309457.8414,312237.3234,0.226120353,0.227622532,0.003362005,0.003362005,-90.75178867,96.43899633
JVASP-48,C,194,P6_3/mmc,hexagonal,2D,0.0309,2.3468,-109.0771963,116.6063447,1791.5338,1403.905891,250133.8852,206577.4969,0.165668149,0.136926945,0.00123069,0.00123069,-90.75178867,96.43899633
JVASP-535,TaSe2,194,P6_3/mmc,hexagonal,2D,0.0052,0.0025,10.17325653,10.0202132,268.2757526,297.9270722,1543994.647,1543216.033,0.017403814,0.018690764,3.39E-06,3.39E-06,2.772805617,2.538965223
JVASP-4486,CaSiO3,74,Imma,orthorhombic,3D,4.216,5.4397,-129.40862,370.35985,912.4497039,2546.750133,54495.019,19217.33767,0.328938274,1.236698844,0.57150707,0.57150707,-111.5191,387.24895
JVASP-222,MoO2,136,P4_2/mnm,tetragonal,2D,0.0004,na,-14.5458181,-14.50416057,318.7754271,314.1651805,2039767.473,2035969.187,0.013523524,0.013422542,2.35E-06,2.35E-06,7.4214873,7.972424233
JVASP-538,CrS,194,P6_3/mmc,hexagonal,2D,0.0022,0.0003,-2.262991687,-1.683879633,70.48114232,59.08824354,1848352.733,1843475.433,0.000920166,0.000783039,1.75E-06,1.75E-06,-3.964039767,-3.731288533
JVASP-4489,CdPS3,12,C2/m,monoclinic,2D,1.761,2.9891,-82.211478,301.9118667,571.1517939,2001.082181,77308.601,22216.17137,0.157444035,0.960586453,0.296972396,0.296972396,-99.06799933,303.80446
JVASP-600,ReSe2,2,P-1,triclinic,2D,1.0694,0.0092,-345.07878,320.05792,1405.723541,1442.643684,12120.11957,13659.02153,0.783515475,0.756165362,1.99146603,1.99146603,-341.846,337.2422833
JVASP-4492,LuTaO4,13,P2/c,monoclinic,2D,4.1194,5.3601,-366.0582467,353.6631433,1001.38118,964.9287005,7394.978567,8088.591467,0.56106762,0.529271432,2.876323032,2.876323032,-442.1492433,417.12925
JVASP-228,MoS2,166,R-3m,trigonal,2D,0.0006,0.0007,-35.48267033,-35.59428333,1304.248435,1261.480468,1973769.343,1948897.873,0.072880175,0.074156387,2.86E-06,2.86E-06,-39.86200833,-40.066084
JVASP-595,TaSe2,166,R-3m,trigonal,2D,0.0042,na,-5.10950345,-6.26954071,67.68084632,80.62561489,3484937.21,3484211.64,0.005421654,0.0068926,2.03E-06,2.03E-06,na,na
JVASP-338,TiTe,194,P6_3/mmc,hexagonal,3D,0.0021,0.0065,-15.16082567,-12.76309433,237.5925341,168.4907789,1045180.327,1039642.09,0.00633376,0.004464589,3.23E-06,3.23E-06,-18.78852867,-16.63246657
JVASP-359,ZrTe,194,P6_3/mmc,hexagonal,3D,0.0073,0.0054,-43.03119267,-41.91621533,3022.216749,2756.393934,1615012.633,1561265.9,0.066394835,0.061320606,1.88E-06,1.88E-06,-45.18969967,-43.814956
JVASP-249,NiSe,129,P4/nmm,tetragonal,2D,0.008,0.004,-13.65913067,-13.82520433,731.8225446,746.2598026,3827020.133,3816951.833,0.007953232,0.008135862,7.34E-07,7.34E-07,na,na
JVASP-580,NbSe2,187,P-6m2,hexagonal,2D,0.0098,na,21.96849203,20.65196423,1536.579428,1538.276276,1504302.097,1507261.993,0.102106941,0.099681049,2.38E-06,2.38E-06,na,na
JVASP-4495,Nb2CS2,164,P-3m1,trigonal,2D,0.0115,0.0015,-11.5343205,-11.8799358,887.1015501,905.2377341,2586835.467,2549240.31,0.00980798,0.01006978,4.11E-06,4.11E-06,na,na
JVASP-4498,FePS3,12,C2/m,monoclinic,2D,0.0088,0.0022,83.33066667,83.53283833,492.8632327,513.3442016,121073.9243,124055.391,0.126975225,0.132489926,5.80E-05,5.80E-05,37.23195113,42.3288535
JVASP-110,BaTiO3,99,P4mm,tetragonal,2D,1.7486,2.1726,-214.2800667,376.21104,1937.85943,1703.072117,39816.7728,16210.25246,0.724304877,0.833365432,3.28027505,3.28027505,-212.5250267,288.1064767
JVASP-19,TiTe,194,P6_3/mmc,hexagonal,3D,0.0009,0.0032,11.54705433,19.55428533,350.9854076,431.8323619,363379.2,367759.8,0.0160723,0.020313645,1.11E-05,1.11E-05,-10.49457533,-2.60249
JVASP-59,Te2Mo,194,P6_3/mmc,hexagonal,2D,1.0415,na,-309.8426433,308.09192,3709.284279,1691.45944,38580.617,17421.04797,1.623475673,0.822807258,0.533271657,0.533271657,-328.43072,303.4673
JVASP-60,Te2Mo,194,P6_3/mmc,hexagonal,2D,0.7646,1.001,-292.3361633,334.0649667,3774.04243,1906.205455,44818.12333,16198.78083,1.537174997,0.923892076,0.491408016,0.491408016,-328.43072,303.4673
JVASP-195,CrSe,129,P4/nmm,tetragonal,2D,0.0071,na,-4.136911333,-3.931884733,6.833697116,9.72953011,1432638.046,1434407.677,0.00065195,0.000721189,7.66E-05,7.66E-05,na,na
JVASP-4313,PS,15,C2/c,monoclinic,0D,1.929,2.6236,-376.6650267,285.9449933,1461.318701,1385.604113,10265.57533,17186.134,0.822065632,0.67691974,1.923786714,1.923786714,-385.5844767,374.6901567
JVASP-275,PtO2,164,P-3m1,trigonal,2D,1.51,1.8326,-369.3388667,404.8251267,3046.674446,1635.495634,22306.80533,9763.3487,1.467970428,0.890659601,1.135213989,1.135213989,-390.00133,419.3482633
JVASP-583,NbSe2,194,P6_3/mmc,hexagonal,2D,0.016,na,4.275857667,3.388954667,348.3856009,374.369715,1080035.707,1079620.903,0.018683047,0.019643299,2.87E-06,2.87E-06,na,na
JVASP-4501,VAg(PSe3)2,5,C2,monoclinic,2D,0.5918,0.4059,-4.321571667,-7.862827,182.7952322,173.6116469,81243.954,81508.14833,0.060072573,0.057090083,3.66E-05,3.66E-05,1.891183667,-0.513953333
JVASP-40,AlN,186,P6_3mc,hexagonal,3D,4.4004,na,-90.44016967,296.21632,610.9467207,1399.216259,74701.196,17670.11233,0.178571627,0.6562961,0.306981134,0.306981134,-82.30320833,308.0172633
JVASP-98,AlN,186,P6_3mc,hexagonal,3D,4.057,na,-82.812946,305.9060067,551.2780076,1396.131941,80372.69633,16431.29217,0.160217234,0.66509323,0.284227059,0.284227059,-82.30320833,308.0172633
JVASP-39,AlN,186,P6_3mc,hexagonal,3D,4.4736,5.1966,-90.153284,312.71926,594.8890706,1398.44812,73194.55567,15728.98213,0.181792572,0.671670019,0.323685989,0.323685989,-82.30320833,308.0172633
JVASP-246,NiSe,194,P6_3/mmc,hexagonal,3D,0.0323,0.0118,-32.795661,-32.18709067,4728.327815,4517.188181,4362444.833,4312729.967,0.039052078,0.037290245,7.21E-07,7.21E-07,-36.51187567,-35.81057633
JVASP-122,SnSe2,164,P-3m1,trigonal,2D,0.0841,1.1417,-236.6976067,334.89983,3738.869886,2864.777879,66276.43633,26435.31967,1.270914997,1.213862303,0.106730307,0.106730307,-234.8704733,361.1953467
JVASP-28,C,227,Fd-3m,cubic,3D,4.1448,na,-267.1358067,193.35517,4718.80766,2315.77614,66125.36267,61941.96767,1.63016819,0.774923351,0.41521092,0.41521092,-264.02074,238.88717
JVASP-91,C,227,Fd-3m,cubic,3D,4.4572,5.0352,-270.21441,197.54281,4682.605114,2313.972164,64131.371,59297.40333,1.627820447,0.788255147,0.16131548,0.16131548,-264.02074,238.88717
JVASP-582,NbSe2,187,P-6m2,hexagonal,3D,0.0018,0.0022,-18.98560007,-20.0345294,114.4099387,119.7192896,1903023.492,1893649.376,0.017079691,0.018796315,1.54E-05,1.54E-05,na,na
JVASP-33,CdS,186,P6_3mc,hexagonal,3D,1.1,na,-50.993195,299.9576033,315.217858,1889.723719,121145.9733,21014.83867,0.070357555,0.928470106,0.160172203,0.160172203,-48.482396,303.86317
JVASP-95,CdS,186,P6_3mc,hexagonal,3D,1.0556,2.6008,-50.481681,295.41667,310.4530025,1873.098015,121693.8267,21499.701,0.069132956,0.914551027,0.158691521,0.158691521,-48.482396,303.86317
JVASP-204,CrTe2,164,P-3m1,trigonal,2D,0.0173,na,-27.108824,-26.97078567,691.0867231,693.0203181,823181.3833,804949.9067,0.029151686,0.029118207,4.17E-06,4.17E-06,na,na
JVASP-299,SnSe,62,Pnma,orthorhombic,2D,0.708,1.2538,-200.8193333,177.89691,5135.205462,1877.686139,113892.4,57389.91567,1.178936053,0.641263428,0.241432476,0.241432476,-228.90023,153.8534067
JVASP-4507,KNO3,160,R3m,trigonal,3D,3.0198,4.2379,-352.0115433,374.2122333,880.4685472,798.4849687,7305.418067,5639.933833,0.492844804,0.452911377,4.347460079,4.347460079,-336.24569,388.58109
JVASP-4,SiO2,154,P3_221,trigonal,3D,5.8041,na,-134.1873533,456.3402967,883.0855395,964.6765533,49442.65933,4690.984333,0.326850017,0.560040278,0.5591347,0.5591347,-124.5931133,468.5623433
JVASP-99,SiO2,154,P3_221,trigonal,3D,5.6658,na,-137.03791,464.8835367,911.5108751,1122.029226,48914.347,5288.156133,0.342098188,0.645774411,0.572569379,0.572569379,-124.5931133,468.5623433
JVASP-41,SiO2,154,P3_221,trigonal,3D,5.9859,8.097,-137.7174433,457.98832,913.9929063,856.732513,48589.16833,4139.290633,0.343674628,0.499323288,0.591919559,0.591919559,-124.5931133,468.5623433
JVASP-10,VSe2,164,P-3m1,trigonal,2D,0.0339,0.0004,18.27638433,17.4904503,879.9664277,853.1422949,2033190.977,2045950.983,0.01547064,0.014486907,1.78E-06,1.78E-06,na,na
JVASP-4510,ScPS4,2,P-1,triclinic,2D,1.7374,1.4391,-272.55293,321.5963067,1248.491484,1026.181952,15976.0811,9661.632567,0.632943911,0.560579969,2.795210349,2.795210349,-270.95242,352.0491133
JVASP-4513,GaAg(PSe3)2,163,P-31c,trigonal,2D,0.2993,1.2695,-75.01886867,358.93341,441.1624334,1235.450986,76415.82533,9555.4606,0.120389069,0.667526888,0.0569645,0.0569645,-78.74441533,352.8174667
JVASP-4516,SiO2,96,P4_32_12,tetragonal,2D,5.7392,8.1902,-150.9195133,357.1677733,1055.102859,925.7195517,47698.36633,7254.0006,0.407276141,0.512182292,0.74278362,0.74278362,-129.8744467,379.58306
JVASP-4519,TlPd2Se3,164,P-3m1,trigonal,2D,0.0041,na,-54.938318,69.35525633,468.2910885,816.1239179,124326.1767,128737.3933,0.064906816,0.097128677,3.68E-05,3.68E-05,-176.73035,240.9078533
JVASP-237,NiO2,12,C2/m,monoclinic,2D,0.8795,0.7092,-371.9452533,419.2008433,2464.917757,1208.388318,17887.059,6845.15,1.252768876,0.682292687,1.468152062,1.468152062,na,na
JVASP-4525,Yb2Se3,70,Fddd,orthorhombic,2D,0.0056,na,10.70705367,13.46115013,20.2152963,15.28805303,2095530.807,2110606.09,0.001245543,0.001596268,0.000195225,0.000195225,3.8276551,7.511202333
JVASP-4531,P4S5,11,P2_1/m,monoclinic,3D,2.2266,3.0092,-325.4761933,377.1224767,1745.69174,1184.415493,17359.66483,8131.868433,0.851211276,0.669641458,3.332406706,3.332406706,-343.04555,409.0277633
JVASP-4534,PPdS,60,Pbcn,orthorhombic,2D,0.9032,0.7201,-250.4009033,351.8696233,1510.986825,1183.699211,20086.0755,9801.019733,0.68193642,0.668115794,1.42336447,1.42336447,-295.53321,373.0855
JVASP-4240,NdTe3,63,Cmcm,orthorhombic,2D,1.00E-04,0.0062,7.514207567,11.5469252,139.0353471,169.1539297,6449591.563,6397220.093,0.005874633,0.010945078,1.59E-05,1.59E-05,12.41415753,18.23325543
JVASP-64,Te2Mo,11,P2_1/m,monoclinic,2D,0.0014,na,-5.833196333,-5.2272474,240.507708,261.0589998,665884.5467,657207.3033,0.009834516,0.010895548,5.67E-06,5.67E-06,-19.74017373,-6.1549456
JVASP-62,Te2Mo,11,P2_1/m,monoclinic,2D,0.0012,na,-30.35849833,-24.48459167,418.5493877,323.4315604,398048.7557,375973.3413,0.024532602,0.018537317,6.55E-05,6.55E-05,-19.74017373,-6.1549456
JVASP-63,Te2Mo,11,P2_1/m,monoclinic,2D,0.0028,0.003,-4.237970333,3.001135333,371.6916967,267.5440334,283885.6233,279896.4033,0.026709495,0.020341343,1.25E-05,1.25E-05,-19.74017373,-6.1549456
JVASP-4537,BaO,129,P4/nmm,tetragonal,3D,3.443,4.2264,-262.9377667,393.01408,3201.91725,1903.207086,34895.07667,12525.516,1.152803705,1.024362491,0.630469628,0.630469628,-103.41185,421.70135
JVASP-231,MoSe2,160,R3m,trigonal,2D,0.9933,1.3218,-332.5870433,200.6901133,3546.122249,1101.212254,32114.58167,27290.143,1.569733661,0.489829884,0.744443255,0.744443255,-356.67162,326.4583633
JVASP-4540,NbSe2,160,R3m,trigonal,2D,0.0111,na,38.4202617,36.98734757,1684.120476,1703.728951,1427008.397,1430246.27,0.190266286,0.188604165,3.94E-06,3.94E-06,na,na
JVASP-4543,Rb3YF6,139,I4/mmm,tetragonal,3D,5.1264,9.1143,-160.56898,392.2024933,1132.81854,2035.881689,44230.363,11192.9066,0.451566387,1.108830721,0.827923852,0.827923852,-140.6674933,425.60255
JVASP-125,PtS2,164,P-3m1,trigonal,2D,0.7206,0.9978,-289.6391933,328.3449767,4963.875595,3397.740934,59155.64333,30987.999,1.62317881,1.533139165,0.383001062,0.383001062,-285.70003,415.26531
JVASP-182,SiC,186,P6_3mc,hexagonal,3D,2.3026,3.0769,-264.57998,297.3700867,3626.262494,1648.130719,49832.747,17922.77867,1.312131129,0.837725775,1.119730862,1.119730862,-245.6917,291.33065
JVASP-4546,NbFeB,187,P-6m2,hexagonal,3D,0.0003,0.0009,5.042913467,5.881661367,114.7065041,142.3135273,2712078.4,2714969.4,0.001101496,0.001396694,1.18E-06,1.18E-06,3.8340184,3.812945867
JVASP-4549,AgF2,14,P2_1/c,monoclinic,3D,0.0013,0.0105,-16.73209697,-17.25936187,1966.027843,1963.547007,1304257.763,1294655.527,0.05006466,0.050176853,8.17E-06,8.17E-06,-16.23659193,-15.64341157
JVASP-4552,AlSn,187,P-6m2,hexagonal,3D,0.0033,0.0029,1.502647767,1.526360067,174.1213454,158.7633587,14695697.03,14685282.07,0.000545168,0.000513505,2.92E-07,2.92E-07,na,na
JVASP-4558,Ta2CS2,166,R-3m,trigonal,2D,0.0018,na,-10.77319653,-11.33516657,1360.199386,1419.34549,3197444.87,3145095.19,0.013662893,0.014274622,2.20E-06,2.20E-06,-11.92707967,-12.626563
JVASP-263,Te2Pd,164,P-3m1,trigonal,2D,0.0024,0.0036,-14.4819426,-14.3950987,1367.060086,1323.420387,5610187.533,5554288.167,0.01058907,0.010337619,5.10E-07,5.10E-07,-14.2971838,-14.2341426
JVASP-4561,TaSe2,160,R3m,trigonal,2D,0.027,na,21.77254822,22.60489848,80.02755357,92.20541444,1440081.567,1440535.603,0.018745508,0.021151631,2.10E-05,2.10E-05,na,na
JVASP-4564,AlPO4,82,I-4,tetragonal,3D,5.8914,8.8761,-136.4681767,487.7755733,869.788626,562.5763673,46729.357,2359.4636,0.331043222,0.332508257,0.560012032,0.560012032,-136.2395133,467.1402
JVASP-353,ZrS,129,P4/nmm,tetragonal,3D,0.0157,0.0031,3.128882167,2.667707467,51.72142237,35.40763922,6923019.6,6929739,0.000445959,0.000334424,7.65E-07,7.65E-07,-0.7007604,-1.063606133
JVASP-272,PtO2,186,P6_3mc,hexagonal,2D,1.4695,na,-338.8936867,388.3475733,2686.163688,1391.099864,23419.37533,8515.847367,1.306699385,0.763171648,0.924288697,0.924288697,-386.59089,444.44553
JVASP-536,TaSe2,186,P6_3mc,hexagonal,2D,0.0052,0.0043,27.01987237,28.46874953,230.2474582,272.5180948,1426001.686,1424418.424,0.034653559,0.040110807,1.81E-05,1.81E-05,-12.5944896,-12.25948712
JVASP-201,CrTe,194,P6_3/mmc,hexagonal,3D,0.0017,0.0008,4.09434742,2.605704757,23.73011082,9.333558328,910108.9567,913967.16,0.000962203,0.000400656,3.19E-06,3.19E-06,-2.9908,-2.8046698
JVASP-4567,YAlO3,194,P6_3/mmc,hexagonal,3D,3.978,5.9339,-101.639786,250.4982733,665.8683956,1289.833993,63429.92467,20682.88533,0.220486755,0.610662784,0.403288907,0.403288907,-113.4374467,299.5659133
JVASP-4570,BN,194,P6_3/mmc,hexagonal,2D,3.6453,5.3285,-258.7862467,234.5058033,3479.776222,1766.925256,51598.86167,31384.85433,1.319507493,0.763276275,0.579382321,0.579382321,-307.1818633,274.2077733
JVASP-4573,B4C,166,R-3m,trigonal,3D,0.0065,0.0067,-8.4183748,-9.46693631,425.7022424,406.4953013,581196.3767,573768.4567,0.021417146,0.020652922,4.98E-06,4.98E-06,na,na
JVASP-92,GaN,186,P6_3mc,hexagonal,2D,1.7126,na,-53.10863133,323.5838133,330.398537,1859.957044,117035.5933,17775.034,0.075232986,0.926672534,0.166275268,0.166275268,-53.26698,326.8062767
JVASP-30,GaN,186,P6_3mc,hexagonal,2D,1.9434,3.0843,-59.889001,320.8537733,390.4250522,1842.213237,108779.2167,17935.49633,0.095126575,0.914797912,0.191586475,0.191586475,-53.26698,326.8062767
JVASP-4588,Na2S,194,P6_3/mmc,hexagonal,3D,1.921,4.053,-77.89044033,229.3427333,524.2581407,1266.563929,86404.98667,27115.20633,0.145816521,0.542790204,0.270724725,0.270724725,-71.52973633,226.58898
JVASP-4591,Tl6TeO6,148,R-3,trigonal,3D,1.5611,2.2288,-278.2237667,349.7271567,3282.708069,1779.521676,40650.512,14435.34033,1.374976196,0.978763294,0.696629303,0.696629303,-258.3232767,346.02343
JVASP-4594,YbLiO2,141,I4_1/amd,tetragonal,2D,0.0005,na,22.36502067,21.77417567,1043.311244,1006.985933,1902125.533,1907774.667,0.038695557,0.037135444,1.56E-06,1.56E-06,24.35029933,23.74220733
JVASP-4597,K2HfF6,189,P-62m,hexagonal,2D,7.2483,9.0234,-337.9062067,474.6693367,1265.84706,559.5314817,11325.72057,2186.256653,0.648215168,0.32770567,1.266690186,1.266690186,-151.5643967,485.8695733
JVASP-4603,MnPS3,12,C2/m,monoclinic,2D,0.0663,na,-26.63615033,-10.89172733,1137.079787,769.0128867,71707.56733,53373.05667,0.266815703,0.204943046,0.000178071,0.000178071,-117.011063,177.7268567
JVASP-4606,ScAg(PS3)2,163,P-31c,trigonal,2D,1.8995,2.0461,-375.8798333,398.11577,854.9483019,923.7779778,5838.642,5793.658933,0.492023586,0.533639543,4.619847163,4.619847163,-390.8481733,412.2112833
JVASP-4609,MnPSe3,148,R-3,trigonal,2D,0.3203,0.005,50.750257,50.3669006,341.9571509,311.9507583,171169.1997,167431.886,0.125466119,0.128390719,8.25E-05,8.25E-05,49.10966567,97.055797
JVASP-4615,CuAgS,36,Cmc2_1,orthorhombic,2D,0.0354,na,-298.4356467,184.4880033,3592.896585,1314.594713,40392.49133,38981.106,1.440579578,0.473387009,0.302613507,0.302613507,-273.7920167,179.92383
JVASP-4618,YbAsPd,189,P-62m,hexagonal,2D,0.0091,na,11.821932,11.5007066,352.1773421,346.1563723,2127000.867,2141524.2,0.005892257,0.005640975,1.43E-06,1.43E-06,na,na
JVASP-596,TaSe2,5,C2,monoclinic,2D,0.0095,na,1.357684,1.863666,31464.64662,32467.75265,125764541.3,126111563,0.011369845,0.011691201,3.22E-08,3.22E-08,na,na
JVASP-4624,Ba(CuAs)2,139,I4/mmm,tetragonal,3D,0.0021,0.0017,-5.7080562,-5.3006308,954.8877447,877.4203255,3190381.833,3188950.2,0.015305899,0.014054922,9.98E-07,9.98E-07,na,na
JVASP-4627,TlTe3Pt2,164,P-3m1,trigonal,2D,0.0517,0.069,-75.00588017,79.28465333,1034.240855,846.9470584,104092.7607,117463.0333,0.154859235,0.133866165,4.73E-05,4.73E-05,-133.8981343,153.7740033
JVASP-4630,TlPt2S3,164,P-3m1,trigonal,2D,1.0636,1.2556,-320.10879,337.49113,3181.511616,1975.321833,31346.295,17293.189,1.521998181,1.060619603,0.60743751,0.60743751,-299.9204533,319.5773733
JVASP-4633,CdPS3,148,R-3,trigonal,2D,1.8085,4.1764,-92.72478133,333.4172367,674.7511287,2213.827436,78802.454,22369.75893,0.187694983,1.070240443,0.453266777,0.453266777,-101.1478157,343.5365733
JVASP-4267,SmTe3,63,Cmcm,orthorhombic,2D,0.0001,na,1.803371533,4.6390611,105.4164069,120.7180868,6579758.453,6530716.5,0.001442192,0.003180412,1.55E-05,1.55E-05,17.68036567,23.2421248
JVASP-4231,USe3,11,P2_1/m,monoclinic,2D,0.0009,0.0001,2.91063,2.416281333,1924.720246,1973.463023,856375.5653,865769.81,0.03397355,0.035083082,5.43E-05,5.43E-05,-21.41215767,-20.16533133
JVASP-4636,Mg(AlSe2)2,166,R-3m,trigonal,2D,1.2228,2.2273,-67.98072933,347.73971,574.994754,1246.309733,103105.9553,11289.66474,0.115045493,0.643218138,0.217518907,0.217518907,-65.215462,345.97967
JVASP-149,TcS2,2,P-1,triclinic,2D,0.929,0.0062,-362.7793167,325.65506,803.941052,1570.988017,6190.740633,14773.34867,0.465347214,0.842252098,3.763983598,3.763983598,-358.5624033,364.5431367
JVASP-4639,AgCN,160,R3m,trigonal,1D,3.3327,3.95,-271.069,312.5206267,2424.639154,1585.789087,33243.91233,15942.51267,0.896148639,0.790083416,1.199244929,1.199244929,-348.5910367,353.9447533
JVASP-572,VS2,164,P-3m1,trigonal,2D,0.0046,0.0012,13.61162033,12.76902567,467.7686801,431.1581161,2448116.643,2457721.583,0.008631846,0.007581922,1.56E-06,1.56E-06,11.73418667,11.69319833
JVASP-4316,B2Mo,191,P6/mmm,hexagonal,2D,0.0059,0.0024,-1.542446063,-1.537639603,61.02471282,60.73408461,13484809,13480061.33,0.000193094,0.000192258,2.10E-07,2.10E-07,-2.43283156,-2.428894087
JVASP-4645,Tl4SnS3,130,P4/ncc,tetragonal,2D,0.6675,na,-139.3953983,196.99093,1529.924264,1365.205691,62280.66167,34583.59767,0.451355775,0.532791369,0.301279557,0.301279557,-188.6699933,154.2813453