JID,Composition,Spg.numb.,Spg.symb.,Cryst.,Dimensionality,OPT SCF gap, MBJ gap,n-Seebeck,p-Seebeck,n-powerfact,p-powerfact,n-cond,p-cond,n-ZT,p-ZT,Avg.elec.mass,Avg.hole mass,n-mp-Seeb,p-mp-Seeb
JVASP-8247,NiO2,166,R-3m,trigonal,2D,0.8425,0.7128,-369.77681,427.7898333,2778.675364,1343.736477,20286.35633,7348.171567,1.373549177,0.753172934,1.263743812,1.263743812,na,na
JVASP-8248,NiO2,166,R-3m,trigonal,2D,0.7771,0.647,-351.8026,435.76746,2901.379614,1539.34706,23418.55833,8241.911833,1.390509591,0.858398004,1.04558369,1.04558369,na,na
JVASP-8249,YCrO3,221,Pm-3m,cubic,3D,0.0187,na,-110.64592,-33.841774,1054.122355,76.68760067,86103.383,66960.534,0.169523528,0.011231725,0.000103381,0.000103381,na,na
JVASP-8250,CaCrF6,148,R-3,trigonal,3D,1.6942,1.7367,56.90788767,54.517583,153.8556573,142.7068541,47703.63367,48223.83,0.077873322,0.072073765,4.28E-05,4.28E-05,na,na
JVASP-8251,MgCrF6,148,R-3,trigonal,3D,1.6305,0.0026,30.40755267,28.806712,73.81332242,66.50834053,81052.376,81483.66267,0.029144537,0.02620765,2.94E-05,2.94E-05,na,na
JVASP-8252,ZnCrF6,148,R-3,trigonal,3D,1.6573,0.0037,29.88857067,29.01381533,68.57918387,66.28906488,67656.313,67914.09267,0.025061512,0.024110382,4.16E-05,4.16E-05,na,na
JVASP-8254,VO2,1,P1,triclinic,2D,0.0016,na,70.897385,70.14014167,1406.509385,1475.112497,442873.234,451449.1817,0.084541647,0.088189491,0.000121164,0.000121164,na,na
JVASP-8255,NiS2,166,R-3m,trigonal,2D,0.0026,na,-43.99526467,-43.18760733,3238.60047,3044.080916,1654927.567,1617191.367,0.071232998,0.06761519,1.74E-06,1.74E-06,na,na
JVASP-8256,TiO2,166,R-3m,trigonal,2D,2.3313,2.6863,-436.7747,398.1790433,2063.26243,2437.243791,13753.73707,15350.78667,1.024445602,1.277314941,488.1433035,488.1433035,na,na
JVASP-8257,SnO2,166,R-3m,trigonal,2D,1.4724,3.031,-72.36225833,483.5039667,479.5723384,2849.686682,91013.254,13194.7868,0.128714398,1.478199168,0.246119252,0.246119252,na,na
JVASP-8259,AlCuO2,194,P6_3/mmc,hexagonal,3D,2.0884,2.0819,-163.03089,473.99974,1429.931064,2549.866118,52041.54833,11005.0058,0.425121398,1.388750182,0.914628968,0.914628968,na,na
JVASP-8264,MnO2,166,R-3m,trigonal,2D,0.7084,0.0153,-334.8235433,363.06815,1432.474029,919.6764988,15900.67767,7054.4296,0.7063824,0.517655182,376.1006246,376.1006246,na,na
JVASP-8265,CoO2,166,R-3m,trigonal,2D,0.0198,0.0148,20.12411693,19.84920307,723.2600875,720.2222262,1087672.727,1092033.737,0.019545933,0.019301355,4.58E-06,4.58E-06,na,na
JVASP-8266,TiO2,166,R-3m,trigonal,2D,2.3554,2.6717,-462.23895,410.85938,2420.824389,2176.494903,13881.351,13008.861,1.222478313,1.162907223,28.37537938,28.37537938,na,na
JVASP-8267,VO2,166,R-3m,trigonal,2D,0.0137,0.0055,61.16834833,60.41648133,1618.629426,1618.392554,649706.3367,657755.5433,0.16690065,0.16382302,7.38E-06,7.38E-06,na,na
JVASP-8268,CoO2,166,R-3m,trigonal,2D,0.0092,0.0082,12.77268517,12.5247115,808.1359114,794.0706225,1648228.263,1651567.357,0.01787349,0.017531617,1.99E-06,1.99E-06,na,na
JVASP-8269,VO2,166,R-3m,trigonal,2D,0.0137,0.0164,54.79236467,53.765776,1448.039224,1440.617582,603099.6317,611593.0087,0.09189061,0.090222231,1.92E-05,1.92E-05,na,na
JVASP-8272,Ca(SnN)2,115,P-4m2,tetragonal,3D,0.0257,na,10.84693404,10.76880961,255.3311146,240.9517973,960595.9167,975808.3367,0.007366829,0.006974991,8.14E-06,8.14E-06,na,na
JVASP-8275,Cu2S,122,I-42d,tetragonal,3D,0.0104,0.152,-1.726151767,15.86727297,176.4954662,321.5913271,288180.6467,323861.3533,0.014648807,0.024960677,9.77E-06,9.77E-06,na,na
JVASP-8278,MoN2,12,C2/m,monoclinic,3D,0.0008,na,27.43970137,26.50140576,544.3779529,533.8322205,897429.13,906581.31,0.062614101,0.056243804,4.89E-06,4.89E-06,na,na
JVASP-8279,CrN2,12,C2/m,monoclinic,3D,0.0018,na,14.69424197,14.75857007,233.3026357,237.3192717,2552854.433,2559053.9,0.012140379,0.012437214,2.74E-06,2.74E-06,na,na
JVASP-8280,MgBiF6,148,R-3,trigonal,3D,5.7477,7.5499,67.18856033,64.406822,513.4595194,478.9945232,137674.0433,139650.18,0.178451686,0.165701698,2.30E-05,2.30E-05,na,na
JVASP-8281,CaBiF6,148,R-3,trigonal,3D,5.5076,7.3516,10.789297,10.00197,8.38017729,7.239949435,72971.16167,73331.07633,0.002781182,0.002400615,4.25E-05,4.25E-05,na,na
JVASP-8282,Ca(VN)2,115,P-4m2,tetragonal,3D,0.0006,na,-66.76797533,-61.75655933,1751.43671,1310.185199,635593.4523,618513.701,0.098473877,0.082508432,2.52E-05,2.52E-05,na,na
JVASP-8283,BiF5,71,Immm,orthorhombic,2D,0.0083,0.0125,-27.33592167,-20.52635367,222.3844233,104.4662539,206291.3167,198190.3833,0.017952524,0.00975625,3.85E-05,3.85E-05,na,na
JVASP-8284,AlCuF5,71,Immm,orthorhombic,3D,0.0088,7.3301,-17.78003733,-19.378667,376.5785713,449.2552415,82986.32967,84455.591,0.085631771,0.099608953,5.54E-05,5.54E-05,na,na
JVASP-8285,CrS2,166,R-3m,trigonal,2D,0.0035,na,-38.50981667,-34.908021,795.2544672,811.9513434,436596.3867,439047.17,0.148415264,0.138191349,1.48E-05,1.48E-05,na,na
JVASP-8291,Zn(CoN)2,115,P-4m2,tetragonal,3D,0.0068,na,-1.871812433,-1.763094167,6.974854441,6.697549085,4707532.283,4706693.523,0.000185512,0.000152273,1.64E-06,1.64E-06,na,na
JVASP-8292,Mg(SnN)2,115,P-4m2,tetragonal,3D,0.008,na,35.51366933,35.941451,2187.799752,2244.63635,1289457.523,1310766.003,0.091733168,0.092085942,2.25E-06,2.25E-06,na,na
JVASP-8294,TaF5,71,Immm,orthorhombic,2D,3.5482,4.6306,-416.1477,359.3642367,2616.550849,2050.091456,17597.67033,13779.34233,1.234199147,1.063195107,129.2150981,129.2150981,na,na
JVASP-8296,TiAlF5,71,Immm,orthorhombic,3D,0.7809,0.3027,1.098442,-1.380502333,143.3345307,151.9399294,38666.19873,38187.86333,0.057837601,0.061328542,0.000315921,0.000315921,na,na
JVASP-8297,AlSnF5,71,Immm,orthorhombic,3D,3.9399,4.8297,-241.0466533,407.9080833,1909.354294,1287.467451,29177.489,8036.079857,0.817911493,0.68249243,1.165468762,1.165468762,na,na
JVASP-8298,Zn(NiN)2,115,P-4m2,tetragonal,3D,0.0081,0.0069,9.7434012,9.665132733,57.7417644,57.19498305,3427709.29,3428647.067,0.007318645,0.007411378,4.83E-06,4.83E-06,na,na
JVASP-8299,CoN,221,Pm-3m,cubic,3D,0.0057,na,2.6538698,2.5653535,89.47551116,83.63651739,12704131,12708711,0.000299522,0.00027989,2.20E-07,2.20E-07,na,na
JVASP-8300,FeN,221,Pm-3m,cubic,3D,0.0038,na,8.2066063,8.0841381,1032.142519,1002.464815,15325423,15339164,0.002932754,0.002844546,1.81E-07,1.81E-07,na,na
JVASP-8301,MgMoF6,148,R-3,trigonal,3D,1.1752,na,60.48603033,58.00898167,117.930796,110.1652503,33776.054,34144.046,0.064468331,0.060203207,6.55E-05,6.55E-05,na,na
JVASP-8302,SbF5,71,Immm,orthorhombic,2D,0.1712,1.4781,-134.1687833,157.6922843,956.3998683,1094.101674,50173.60967,7425.5021,0.323939004,0.59265411,0.595915618,0.595915618,na,na
JVASP-8303,AlVF5,71,Immm,orthorhombic,3D,1.0156,0.0685,-387.6358567,414.67004,589.2646089,109.8783444,3860.027505,628.4673807,0.329824522,0.06563865,631.6445348,631.6445348,na,na
JVASP-8304,MnS2,166,R-3m,trigonal,2D,0.0041,0.0009,-11.3372035,-6.5091606,63.93149797,16.66161674,443861.4703,441099.7503,0.003105098,0.000933974,1.98E-05,1.98E-05,na,na
JVASP-8307,TeO3,194,P6_3/mmc,hexagonal,2D,0.3613,1.1105,-105.78503,314.06294,615.4723805,1321.209263,56074.87033,14248.14043,0.215097153,0.61854582,0.020144055,0.020144055,na,na
JVASP-8308,Mg(TiN)2,115,P-4m2,tetragonal,3D,0.0019,na,-9.442123733,-10.25944573,80.8404422,70.3726988,1771514.065,1774493.227,0.008825006,0.009076805,2.81E-05,2.81E-05,na,na
JVASP-8309,Mg(CoN)2,115,P-4m2,tetragonal,3D,0.0006,na,-16.01384293,-15.68436967,399.6834642,386.0641694,4722790.677,4714859.1,0.012757249,0.012046079,2.37E-06,2.37E-06,na,na
JVASP-8310,ZnSbF6,148,R-3,trigonal,3D,3.3624,0.005,15.63904133,14.04095533,165.8353778,134.1866961,698321.9467,703534.94,0.01091872,0.008777464,4.03E-06,4.03E-06,na,na
JVASP-8311,MgTiF6,148,R-3,trigonal,3D,4.6667,4.9994,-546.47946,515.7174667,100.0642881,473.5248092,333.14986,1783.924667,0.060005271,0.280964358,52.97926585,52.97926585,na,na
JVASP-8312,V2ZnN2,115,P-4m2,tetragonal,3D,0.0072,na,2.015961133,2.486143,472.9939261,492.8985687,3118801.867,3120511.233,0.005729396,0.005971724,9.45E-07,9.45E-07,na,na
JVASP-8313,VZnF6,148,R-3,trigonal,3D,0.6855,1.7473,-19.9054222,-21.760866,34.53321936,34.28330608,48970.175,48968.95,0.017615606,0.017562348,6.86E-05,6.86E-05,na,na
JVASP-8314,ZnMoF6,148,R-3,trigonal,3D,1.0502,na,79.907474,77.52552333,488.1717272,474.1143913,50511.217,51390.449,0.228746273,0.221172615,5.58E-05,5.58E-05,na,na
JVASP-8315,MgVF6,148,R-3,trigonal,3D,0.6992,0.0012,-53.55314433,-55.68994967,124.6192283,133.1306218,41882.38133,41486.505,0.063623727,0.068115841,4.95E-05,4.95E-05,na,na
JVASP-8316,MnAlF5,71,Immm,orthorhombic,3D,2.3793,0.3643,-311.9306233,459.74647,319.5097012,261.9600169,2859.658567,1426.257097,0.187897978,0.155712136,12.76615595,12.76615595,na,na
JVASP-8317,AlNiF5,71,Immm,orthorhombic,3D,0.0047,0.0011,-58.105858,302.8583767,553.8206678,112.9432808,3742.151157,1074.7361,0.305523059,0.067161226,1.774501013,1.774501013,na,na
JVASP-8319,CaTiF6,148,R-3,trigonal,3D,4.7611,5.0496,-501.1231133,580.7400433,125.4129135,149.3904176,497.90494,443.6648167,0.075191014,0.089392544,24.03422378,24.03422378,na,na
JVASP-8320,FeO2,166,R-3m,trigonal,2D,0.0044,0.0048,13.297592,13.41031767,2356.983532,2360.858976,1617234.98,1624533.957,0.050238173,0.050043221,5.67E-06,5.67E-06,na,na
JVASP-8322,Ti(BiO3)2,99,P4mm,tetragonal,3D,0.0118,na,47.08835533,47.20345867,820.8923789,837.2317488,566955.52,573977.4667,0.080316024,0.081730633,8.85E-06,8.85E-06,na,na
JVASP-8323,Co(BiO3)2,99,P4mm,tetragonal,2D,0.0084,na,31.826132,31.83389467,339.9171068,345.8323297,681843.65,685400.9467,0.059718356,0.059768773,8.64E-06,8.64E-06,na,na
JVASP-8327,YTiF5,71,Immm,orthorhombic,3D,0.3158,0.0176,19.042026,16.51328467,4.746036757,3.085822048,29719.19133,29814.638,0.00238583,0.001573287,0.000406629,0.000406629,na,na
JVASP-8328,CuN,221,Pm-3m,cubic,3D,0.0039,na,5.4855709,5.4739177,237.7837665,237.125246,7902027.5,7913730.7,0.001223042,0.001217574,3.56E-07,3.56E-07,na,na
JVASP-8332,ZnNiF6,148,R-3,trigonal,3D,1.1466,0.7401,-466.11247,438.9828533,822.9166294,782.0087614,3784.6123,4072.3044,0.480457183,0.456642681,4.902524995,4.902524995,na,na
JVASP-8333,YAgO3,221,Pm-3m,cubic,3D,0.0009,na,0.29942508,0.24556679,0.47909661,0.322231721,5343757.6,5343539.5,3.63E-06,2.44E-06,5.19E-07,5.19E-07,na,na
JVASP-8336,Ca(FeN)2,115,P-4m2,tetragonal,3D,0.0114,0.0076,-1.619530333,-2.053978667,7.699251312,11.10455624,3004661.7,3002666.513,0.000112675,0.000185533,1.43E-06,1.43E-06,na,na
JVASP-8337,TiZnF6,148,R-3,trigonal,3D,4.0791,4.0184,-478.0056433,506.85403,247.8740739,547.1151239,1078.085133,2143.921,0.148249009,0.324590687,14.08980331,14.08980331,na,na
JVASP-8338,CaSbF6,148,R-3,trigonal,3D,4.3959,5.5012,26.431387,24.855216,97.38888147,87.13931277,139190.5633,140772.84,0.023573153,0.021035331,1.95E-05,1.95E-05,na,na
JVASP-8339,TeF6,148,R-3,trigonal,3D,4.2417,5.6283,-226.70548,522.7228067,911.5517912,158.9228157,17730.84933,572.7969633,0.457888663,0.094969623,1.313014614,1.313014614,na,na
JVASP-8344,YSnF5,71,Immm,orthorhombic,2D,3.1565,3.9984,-248.8688967,277.5112367,1859.625816,1859.296325,24541.70833,20129.60767,0.836832606,0.893220271,5.160163421,5.160163421,na,na
JVASP-8345,CrN,221,Pm-3m,cubic,3D,0.002,0.0015,-3.4032628,-3.4512966,134.4859356,138.2395869,11611435,11605607,0.000480723,0.000494711,2.43E-07,2.43E-07,na,na
JVASP-8346,CaCoF6,148,R-3,trigonal,3D,1.0874,1.0345,39.984657,37.99569733,113.4072136,103.1643499,70937.94633,71461.30433,0.049286642,0.044700178,3.09E-05,3.09E-05,na,na
JVASP-8347,CaNiF6,148,R-3,trigonal,3D,1.4253,0.9491,-468.4700433,470.6115267,248.0333907,635.6518097,1132.9156,2869.502733,0.148383291,0.375516574,11.49117275,11.49117275,na,na
JVASP-8349,ZnCoF6,148,R-3,trigonal,3D,0.8067,na,26.84366733,26.066314,80.22210719,75.7035292,111549.68,112008.0567,0.022884127,0.021513255,2.52E-05,2.52E-05,na,na
JVASP-8351,CaMnF6,148,R-3,trigonal,3D,2.3407,1.5148,-493.98212,434.7974767,143.6187788,325.6266809,586.57366,1722.5583,0.085978873,0.193848914,24.02336752,24.02336752,na,na
JVASP-8352,MnZnF6,148,R-3,trigonal,3D,1.9631,na,-372.8279733,380.1474333,695.2654215,582.7528174,5066.6486,4032.8549,0.404114139,0.341225327,3.974950681,3.974950681,na,na
JVASP-8353,MgCoF6,148,R-3,trigonal,3D,0.9629,0.8047,30.18147833,28.846053,116.6013327,106.8444632,124282.3633,124973.0567,0.035101165,0.032066246,2.02E-05,2.02E-05,na,na
JVASP-8355,MgMnF6,148,R-3,trigonal,3D,2.2385,1.4323,-495.32675,390.22232,171.5526835,535.4993202,697.41072,3523.209067,0.102731415,0.314414021,20.19276902,20.19276902,na,na
JVASP-8356,MgWF6,148,R-3,trigonal,3D,1.9477,0.6044,-68.79255233,-70.08936667,220.7363819,228.1325491,51810.297,51509.23133,0.122713963,0.126869729,4.19E-05,4.19E-05,na,na
JVASP-8357,AlWF5,71,Immm,orthorhombic,3D,0.0268,na,39.92379663,46.091088,983.8348521,1277.444256,99450.43633,108926.9037,0.089473389,0.121314376,8.03E-05,8.03E-05,na,na
JVASP-8359,AlCrF5,71,Immm,orthorhombic,3D,0.0176,0.1246,-44.71320933,-47.67658967,571.0139911,711.1967767,65350.65467,66538.661,0.168169137,0.196300223,9.55E-05,9.55E-05,na,na
JVASP-8360,MoF5,71,Immm,orthorhombic,2D,0.0002,na,-39.08077967,-39.91844133,1368.949751,1404.987915,1157453.373,1146761.98,0.048281824,0.049750066,3.03E-05,3.03E-05,na,na
JVASP-8361,WF5,71,Immm,orthorhombic,2D,0.0008,na,-29.92076007,-30.775176,1538.444218,1548.188642,774198.8967,773141.9867,0.094703308,0.096244362,0.000108485,0.000108485,na,na
JVASP-8362,YCuO2,166,R-3m,trigonal,3D,2.8763,2.8853,-309.8318367,500.29648,2782.968329,1789.193014,28955.39033,7186.776667,1.268010946,1.009332375,0.926686219,0.926686219,na,na
JVASP-8363,BiO2,194,P6_3/mmc,hexagonal,2D,0.0082,na,33.89738767,43.33950767,790.1666019,1101.994317,280135.8233,286952.1,0.082331946,0.119323398,1.41E-05,1.41E-05,na,na
JVASP-8364,YFeF5,71,Immm,orthorhombic,2D,0.0021,0.0001,-148.6727787,146.4502767,56.97221149,82.41679783,445.81326,617.0034333,0.034038468,0.049316985,3.68747152,3.68747152,na,na
JVASP-8365,CaNiN,131,P4_2/mmc,tetragonal,3D,0.0091,0.0098,16.79455,16.79391733,386.0500459,377.0845649,2960291.127,2973518.267,0.009886086,0.009976306,9.06E-06,9.06E-06,na,na
JVASP-8366,Ca3SbN,221,Pm-3m,cubic,3D,0.2121,0.3466,-88.660493,53.552871,334.8921531,112.130953,42603.442,39098.491,0.075807612,0.024670452,0.000220728,0.000220728,na,na
JVASP-8367,Ca3BiN,221,Pm-3m,cubic,3D,0.1618,0.9501,-150.64682,136.51508,1537.209613,1511.95521,67735.003,81129.289,0.512900195,0.462019887,0.384390355,0.384390355,na,na
JVASP-8368,Sr2ZnCu2(SO)2,139,I4/mmm,tetragonal,3D,1.0055,2.1672,-68.95408633,292.7451267,443.9442177,1414.189498,93299.33033,33931.8762,0.118538923,0.557404597,0.244722693,0.244722693,na,na
JVASP-8369,AlCuSe2,122,I-42d,tetragonal,3D,1.0689,na,-48.51308267,317.49956,280.610006,1971.770822,119187.34,19646.771,0.063022096,0.941313433,0.14650103,0.14650103,na,na
JVASP-8370,AlCuS2,122,I-42d,tetragonal,3D,1.8964,2.5454,-95.621356,338.78705,766.3318813,1317.379295,83956.13833,11844.46133,0.196022753,0.681746062,0.256658947,0.256658947,na,na
JVASP-8371,ZnCu2GeS4,121,I-42m,tetragonal,3D,0.3862,1.031,-115.4281467,295.4318167,1066.348931,2296.350654,78163.69533,26213.58667,0.287331529,1.022844467,0.079285532,0.079285532,na,na
JVASP-8372,Ca2CoO3,42,Fmm2,orthorhombic,3D,0.0124,0.0008,3.949747667,3.089896333,3857.424127,3689.179694,5726236.58,5766961.2,0.021632371,0.021495051,1.35E-05,1.35E-05,na,na
JVASP-8375,Li(NiO2)2,10,P2/m,monoclinic,3D,0.0119,0.0038,-31.65639667,-32.11115667,677.8154744,673.5633044,482892.35,479874.0767,0.078073186,0.0790414,7.34E-06,7.34E-06,na,na
JVASP-8376,Li(CoO2)2,10,P2/m,monoclinic,3D,0.0052,0.0012,35.41172317,35.40429463,412.5452989,411.6686226,321727.8933,323356.57,0.049134542,0.049218706,1.37E-05,1.37E-05,na,na
JVASP-8377,LiMn2O4,10,P2/m,monoclinic,3D,0.0055,0.0059,3.7532759,2.961153133,259.1359444,285.8768209,857390.3807,854624.9883,0.01523779,0.016204244,2.06E-05,2.06E-05,na,na
JVASP-8381,YMnF5,71,Immm,orthorhombic,2D,2.0647,0.0068,-269.3120367,303.8398567,274.1832216,689.9038628,3461.698033,7094.166567,0.160853577,0.389054118,4.240837317,4.240837317,na,na
JVASP-8382,YCrF5,71,Immm,orthorhombic,2D,0.0058,0.145,-258.45846,-80.55684333,573.7262805,682.7763775,8182.087567,6782.077707,0.27313269,0.305548795,0.103297049,0.103297049,na,na
JVASP-8383,YWF5,71,Immm,orthorhombic,2D,0.0061,0.9076,16.80553045,15.23490227,381.3881347,390.4743268,344800.6467,349010.6067,0.027373907,0.027373533,1.51E-05,1.51E-05,na,na
JVASP-8384,YNiF5,71,Immm,orthorhombic,3D,0.0527,na,26.356895,19.49388333,920.4811932,940.3472346,47272.40033,44355.40553,0.291956234,0.306478343,0.000679658,0.000679658,na,na
JVASP-8385,YCoF5,71,Immm,orthorhombic,2D,0.1092,0.0316,-80.06040833,-59.89245387,4.794834994,3.080584632,2424.320567,2446.999633,0.002731456,0.001824435,0.026439993,0.026439993,na,na
JVASP-8386,YVF5,71,Immm,orthorhombic,2D,0.2718,0.2498,-13.01581533,-53.684817,789.7653098,308.0847621,8070.019467,3123.81038,0.368505598,0.134379731,0.180183743,0.180183743,na,na
JVASP-8396,SbS2,122,I-42d,tetragonal,3D,0.1964,0.0198,-0.77982663,-1.709210957,2.737649359,2.243180112,882638.6733,883221.1567,0.000289456,0.000317683,5.17E-06,5.17E-06,na,na
JVASP-8397,SnS2,122,I-42d,tetragonal,3D,1.5367,2.7992,-92.696827,387.46777,488.2213929,1180.851319,56095.101,7978.932033,0.168380243,0.657855359,0.317165148,0.317165148,na,na
JVASP-8398,MoS2,122,I-42d,tetragonal,3D,0.0006,na,-17.97238833,-12.2225967,368.0901883,316.7771013,538236.84,538902.7667,0.018501134,0.014541017,1.04E-05,1.04E-05,na,na
JVASP-8399,TiS2,122,I-42d,tetragonal,3D,1.3792,na,-216.5850767,414.1100033,928.4841259,1471.225227,19857.072,8521.3058,0.46741314,0.843573343,1.296871273,1.296871273,na,na
JVASP-8400,BaYCuSnO5,99,P4mm,tetragonal,2D,0.0138,na,-17.56699647,-17.46708787,10.97148889,9.15561296,1867795.222,1873374.349,0.002927319,0.002609767,0.000209956,0.000209956,na,na
JVASP-8401,BaYCuSbO5,99,P4mm,tetragonal,3D,0.0081,na,16.21728793,14.7377786,822.9278328,735.5267951,1719328.22,1756994.793,0.014231657,0.012358446,8.17E-06,8.17E-06,na,na
JVASP-8402,BaYCu2O5,123,P4/mmm,tetragonal,3D,0.0015,na,5.830045333,5.641017867,80.27582713,80.81234151,2336915.4,2340762.933,0.001394672,0.001294966,1.26E-06,1.26E-06,na,na
JVASP-8403,BaYTiCuO5,99,P4mm,tetragonal,2D,0.0046,na,2.648508,1.271858333,539.2899642,539.842084,1397830.12,1415405.233,0.020008121,0.021674913,2.73E-06,2.73E-06,na,na
JVASP-8404,BaYCuAgO5,99,P4mm,tetragonal,3D,0.0019,na,13.13369733,12.68522347,403.0642903,373.5155385,2241827.633,2252766.933,0.010508681,0.009559595,1.28E-06,1.28E-06,na,na
JVASP-8405,BaTiAlCuO5,99,P4mm,tetragonal,3D,0.011,na,-200.7404733,-97.596432,1509.753359,50.02990838,51333.8599,19832.29765,0.445041159,0.023960583,0.012982285,0.012982285,na,na
JVASP-8406,BaAlCuAgO5,99,P4mm,tetragonal,3D,0.0071,na,30.83479813,30.300543,2402.841066,2331.495798,1042662,1055258.457,0.159191916,0.146589005,3.00E-06,3.00E-06,na,na
JVASP-8407,BaAlCu2O5,99,P4mm,tetragonal,3D,0.0052,na,10.7950992,10.42240453,1658.537868,1640.022661,2322818.9,2326005.567,0.042523458,0.041329353,1.26E-06,1.26E-06,na,na
JVASP-8408,BaAlCuBiO5,99,P4mm,tetragonal,3D,0.0627,na,74.89623841,86.29673713,0.235224504,1.333577451,1144246.956,1143495.416,0.00011128,0.000227739,0.110418347,0.110418347,na,na
JVASP-8409,BaAlCuSnO5,99,P4mm,tetragonal,3D,0.0006,na,-56.46526647,-47.17587827,139.9642609,93.14055527,1668503.349,1674203.937,0.049137442,0.031051743,0.000180631,0.000180631,na,na
JVASP-8410,BaTaCuO5,99,P4mm,tetragonal,3D,0.0806,na,-15.55651767,-18.509168,897.2934796,956.3077389,1063796.947,1044855.828,0.024532194,0.026327213,0.002322691,0.002322691,na,na
JVASP-8411,BaReCuO5,99,P4mm,tetragonal,3D,0.0028,na,-17.67914433,-17.944972,831.1224371,867.0306822,3315610.131,3297796.328,0.009532647,0.009877684,2.34E-05,2.34E-05,na,na
JVASP-8412,BaYCuBiO5,99,P4mm,tetragonal,3D,0.1171,na,59.147222,52.11316067,694.770565,766.702058,861739.92,839787.7913,0.17703389,0.177828546,4.11E-05,4.11E-05,na,na
JVASP-8413,BaAlFeCuO5,99,P4mm,tetragonal,3D,0.0003,na,-15.125308,-11.69418533,443.3999139,422.8818486,1661517.691,1677224.774,0.010724986,0.009397648,0.000369754,0.000369754,na,na
JVASP-8414,BaYCoCuO5,99,P4mm,tetragonal,3D,0.0011,na,1.443384667,1.179635,320.0360871,326.782851,1643383.053,1640858.683,0.013095323,0.013098727,2.55E-06,2.55E-06,na,na