JID,Composition,Spg.numb.,Spg.symb.,Cryst.,Dimensionality,OPT SCF gap, MBJ gap,n-Seebeck,p-Seebeck,n-powerfact,p-powerfact,n-cond,p-cond,n-ZT,p-ZT,Avg.elec.mass,Avg.hole mass,n-mp-Seeb,p-mp-Seeb
JVASP-23844,TbGeIr,62,Pnma,orthorhombic,3D,0.0029,na,-8.372525733,-8.942606967,190.9571662,220.3348929,1782547.933,1774367.867,0.005332858,0.006181099,1.68E-06,1.68E-06,-6.58708165,-7.287006543
JVASP-23845,U(SiIr)2,129,P4/nmm,tetragonal,3D,1.00E-04,na,58.22072233,59.42390533,1592.138189,1682.836517,404544.0733,408819.4167,0.086995192,0.091822996,1.06E-05,1.06E-05,2.795578333,3.206934667
JVASP-23846,CoBW,62,Pnma,orthorhombic,3D,0.0057,na,-7.161715333,-3.712453667,131.5876633,115.4995156,645722.2967,644109.96,0.005999149,0.005256746,5.37E-06,5.37E-06,-6.049214067,-3.258938433
JVASP-23848,Sr(Sb3Ru)4,204,Im3,cubic,3D,0.135,na,25.30531867,26.19306567,377.4269952,409.5880715,589398.9233,597000.42,0.022554699,0.024059253,5.08E-06,5.08E-06,22.385547,24.209956
JVASP-23849,SmMnB4,55,Pbam,orthorhombic,3D,0.0042,0.008,-22.56447833,-22.04370367,406.416414,392.7806662,760827.15,756328.13,0.019169377,0.018699356,4.21E-06,4.21E-06,-20.119231,-19.92798033
JVASP-23850,TmGeRh,62,Pnma,orthorhombic,3D,0.0025,na,-0.662449717,-1.4809376,8.743832658,10.31225191,1856720.067,1856989.8,0.000239513,0.000312836,1.69E-06,1.69E-06,-2.273707833,-2.69677672
JVASP-23851,LuSiRh,62,Pnma,orthorhombic,3D,0.005,0.0011,-2.294919833,-2.765209933,51.9092107,48.98190876,1804537.8,1801819.433,0.001513029,0.001416519,1.71E-06,1.71E-06,0.8351158,0.45871145
JVASP-23852,Cr2CuS4,227,Fd-3m,cubic,3D,0.0014,na,43.40394333,43.478081,896.8951759,905.5667039,476083.7,479048.75,0.061495346,0.062246148,7.03E-06,7.03E-06,13.48037,13.949059
JVASP-23862,NaCl,225,Fm-3m,cubic,3D,5.3211,8.2417,-114.7442,454.50182,808.9446832,1623.788008,61440.86767,7860.643067,0.273881906,0.893895266,0.486734019,0.486734019,-106.26571,462.35955
JVASP-23863,CaCl2,136,P4_2/mnm,tetragonal,3D,5.2887,6.7648,-234.7193667,307.9488367,1406.399179,1034.133025,24927.975,10876.6659,0.582930592,0.55133261,1.238930345,1.238930345,-250.7828533,314.06978
JVASP-23864,LiCl,225,Fm-3m,cubic,3D,6.6669,3.2165,-143.29478,461.72187,1080.404455,3330.945948,52616.94467,15624.52033,0.348792939,1.73880959,0.49786799,0.49786799,-120.90766,453.40649
JVASP-23865,SrClF,129,P4/nmm,tetragonal,3D,5.9498,7.9108,-113.3135467,471.77968,767.9491726,717.3300103,57599.749,3233.309433,0.260291652,0.418928148,0.494592026,0.494592026,-173.14791,481.2099167
JVASP-23867,NaClO4,63,Cmcm,orthorhombic,3D,5.9254,8.1367,-143.6547267,456.1281633,841.4422334,809.9330254,40951.03833,3684.711347,0.339024184,0.470990171,0.625281699,0.625281699,-149.1725867,477.0842067
JVASP-23869,Bi2Pd3S2,199,I2_13,cubic,3D,0.0355,na,1.063641433,-0.016642301,2.417536761,0.0005918,2136892.1,2136723.567,4.72E-05,1.15E-08,1.29E-06,1.29E-06,2.5363064,1.8532184
JVASP-23870,SrBrF,129,P4/nmm,tetragonal,3D,5.2929,6.8524,-126.2033833,447.6601633,906.0510453,1015.537036,54535.10067,5047.142213,0.307404164,0.57521742,0.516333793,0.516333793,-111.1905867,468.38017
JVASP-23872,NbSeI,216,F-43m,cubic,3D,0.9776,1.0652,21.05135367,18.17150333,46.93788895,35.24383166,105916.47,106733.66,0.016796988,0.012628945,2.62E-05,2.62E-05,21.027269,18.04666
JVASP-23873,Ba2Cu3(ClO2)2,139,I4/mmm,tetragonal,3D,0.0546,na,7.429358267,8.253886267,0.102839609,1.209938573,949201.1467,948992.8933,4.80E-05,7.66E-05,0.001995585,0.001995585,na,na
JVASP-23878,Na4Al3Si3ClO12,218,P-43n,cubic,3D,4.8356,na,-100.06475,410.05024,592.4417876,113.7324946,59167.532,676.41063,0.204193558,0.068169233,0.37064049,0.37064049,-131.6097,409.54604
JVASP-23880,Na4Al3Si3BrO12,218,P-43n,cubic,3D,4.7486,na,-97.104449,502.98954,577.1222144,49.65449569,61205.371,196.26401,0.195648038,0.029755281,0.35675262,0.35675262,-241.54837,528.90054
JVASP-23881,K4Al3Si3ClO12,218,P-43n,cubic,3D,4.6313,na,-103.92832,407.39092,596.2330226,193.6748991,55201.161,1166.9457,0.212882939,0.11541837,0.387664252,0.387664252,na,na
JVASP-23885,NiBi3,62,Pnma,orthorhombic,3D,0.0024,na,20.34656573,19.82890697,584.6544688,562.8431144,1744805.317,1765188.95,0.018727514,0.01788956,1.93E-06,1.93E-06,13.25066717,13.01804967
JVASP-23888,SrCl2,225,Fm-3m,cubic,3D,5.4985,7.6257,-230.25528,368.08741,2360.857696,3054.462672,44529.78667,22544.09967,0.946824865,1.438200159,0.564780976,0.564780976,-131.98746,374.28737
JVASP-23889,Bi2Rh,14,P2_1/c,monoclinic,3D,0.0022,na,-16.53913087,-10.68642457,310.6112085,169.7003762,1024133.593,1005099.693,0.010379964,0.005113654,3.89E-06,3.89E-06,-18.0989346,-12.29262987
JVASP-23890,UCl4,141,I4_1/amd,tetragonal,3D,0.0121,0.0003,-63.28570833,-64.053466,294.0489706,299.3063813,73367.89367,72932.67833,0.10486811,0.107188887,3.49E-05,3.49E-05,-46.15211567,-42.120061
JVASP-23896,Sm4Bi3,220,I-43d,cubic,3D,0.0398,na,-0.359178163,-1.261949833,0.094711224,1.168824167,734144.58,733947.51,5.64E-06,6.97E-05,3.67E-06,3.67E-06,-1.8376228,-2.9050508
JVASP-23897,Yb4Bi3,220,I-43d,cubic,3D,0.0365,na,-6.895129933,-10.95969733,35.33986826,88.80970323,743327.1867,739372.5067,0.002465431,0.006267584,3.35E-06,3.35E-06,-12.391058,-16.49903
JVASP-23899,Pr4Bi3,220,I-43d,cubic,3D,0.0243,na,1.045854067,-0.174068757,0.764981913,0.021191182,699373.2033,699380.5167,4.95E-05,1.37E-06,3.81E-06,3.81E-06,1.7478552,0.37904912
JVASP-23900,RbVCl3,194,P6_3/mmc,hexagonal,3D,0.0191,na,61.39326567,63.47412467,3402.747384,3095.772512,400655.556,384190.3837,0.210251694,0.211731153,9.87E-05,9.87E-05,-44.28827233,-44.54046533
JVASP-23901,Ca4Cl6O,186,P6_3mc,hexagonal,3D,5.5533,na,-387.2150833,422.2534267,727.0914761,256.4203323,4357.404967,1405.672633,0.416458836,0.152741613,7.228516145,7.228516145,-118.5749333,413.3031767
JVASP-23902,Si3(BiO3)4,220,I-43d,cubic,3D,4.1292,na,-346.93341,319.59823,548.1488805,689.1741347,4554.139,6747.148033,0.32006469,0.397836437,3.050059124,3.050059124,-368.86507,322.81599
JVASP-23918,Al4Bi2O9,55,Pbam,orthorhombic,3D,2.8431,na,-135.1058633,354.4861767,935.6375401,941.5763245,52515.809,7420.2647,0.339547272,0.518295648,0.694838563,0.694838563,-151.0649833,380.68499
JVASP-23920,BaClF,129,P4/nmm,tetragonal,3D,5.4153,7.233,-134.48844,413.5028933,943.0560374,1010.3126,50031.89333,5487.200967,0.3428835,0.577244245,0.594887978,0.594887978,-140.8861567,425.8071067
JVASP-23927,Ga4Bi2O9,55,Pbam,orthorhombic,3D,2.9291,na,-154.4449867,446.37541,1039.336592,463.3112691,43318.758,2283.115633,0.406266887,0.273665425,0.829028704,0.829028704,-161.3355267,445.2540333
JVASP-23932,Ge3(BiO3)4,220,I-43d,cubic,3D,3.6146,na,-352.0898733,403.76458,1505.427643,399.2850405,12143.75,2449.213267,0.857725915,0.236710757,1.685298299,1.685298299,-360.08828,365.27316
JVASP-23940,K3B6BrO10,160,R3m,trigonal,3D,5.3828,na,-125.2659633,475.8453667,817.3922584,184.529087,52078.159,806.3102467,0.302257535,0.110012169,0.534945508,0.534945508,-126.5516967,474.5956
JVASP-23952,Na4Al3Si3IO12,218,P-43n,cubic,3D,4.2957,na,-93.057009,448.65512,553.4324736,18.90916995,63909.653,93.939276,0.183509873,0.0113451,0.339420367,0.339420367,na,na
JVASP-23953,Na4Ga3Si3ClO12,218,P-43n,cubic,3D,4.2238,na,-98.584156,452.75216,576.9036503,240.7375901,59359.337,1174.4184,0.198683036,0.143835964,0.364547014,0.364547014,-237.87344,465.10045
JVASP-23958,PH6NO4,122,I-42d,tetragonal,3D,5.8115,na,-147.47199,486.0939,983.9089075,306.9531108,45247.54067,1304.6356,0.381176143,0.183063574,0.671354334,0.671354334,-129.72376,480.5318533
JVASP-23959,RbH2OF,62,Pnma,orthorhombic,3D,5.7105,na,-83.345239,449.66614,547.0240419,194.8359835,80866.525,921.1722233,0.156432575,0.116345925,0.331294614,0.331294614,-126.0277567,463.9904733
JVASP-23961,RbMgH3,194,P6_3/mmc,hexagonal,3D,2.8584,na,-92.032151,250.32225,609.6476824,1963.815085,72366.58033,31812.688,0.18797383,0.898326292,0.348783114,0.348783114,-93.95562367,273.1427633
JVASP-23962,Mg2PHO5,62,Pnma,orthorhombic,3D,5.3183,na,-114.6779567,480.5321933,749.6577159,221.3291103,58214.50033,1082.428443,0.262686885,0.13187226,0.504912638,0.504912638,-113.7603267,491.0134867
JVASP-23964,AlH12(ClO2)3,167,R-3c,trigonal,3D,5.2386,na,-101.5198967,334.6036933,660.3011895,360.2971242,64625.10667,3322.596533,0.21720342,0.211508896,0.390640548,0.390640548,-109.8619033,388.17919
JVASP-23967,H4CN2O,113,P-42_1m,tetragonal,3D,5.1664,7.1439,-194.7828767,372.3501067,924.9432045,942.7000595,22549.709,6384.558867,0.40519782,0.53407081,0.8646706,0.8646706,-180.9914733,401.02513
JVASP-23972,H4NF,186,P6_3mc,hexagonal,3D,5.9769,10.9575,-136.6977167,518.2960833,836.49515,391.5644864,44971.12367,1486.1224,0.323749475,0.233127454,0.578839808,0.578839808,-146.8204067,525.5084133
JVASP-23973,H4OF2,14,P2_1/c,monoclinic,0D,7.2755,10.9274,-135.831569,403.2094667,1093.741596,332.3904867,42721.87161,1923.689833,0.387621578,0.196920778,19.11464317,19.11464317,-147.72987,440.1703967
JVASP-23980,KHF2,140,I4/mcm,tetragonal,3D,7.4056,11.2398,-129.2253567,484.3952033,761.3252474,661.874495,45602.97967,3121.880533,0.288893874,0.385186424,0.485961107,0.485961107,-137.9930333,491.0013467
JVASP-23988,KP(HO2)2,43,Fdd2,orthorhombic,3D,5.8174,na,-148.3364933,477.0140467,1002.912539,344.5907601,45699.069,1554.706533,0.388462947,0.20549465,0.673438006,0.673438006,-128.9753833,476.7426867
JVASP-23997,MgH2SO5,15,C2/c,monoclinic,3D,5.9924,na,-150.02737,437.1193,1050.354656,456.6298079,46990.867,2415.812567,0.406065297,0.268700422,0.714099384,0.714099384,-126.9783967,441.1233633
JVASP-24004,SnH8(NF3)2,164,P-3m1,trigonal,0D,5.2535,na,-164.4360467,521.81231,909.3916942,258.0475298,33626.51967,966.3201733,0.392235352,0.154167961,0.762767567,0.762767567,-157.8354467,517.8628833
JVASP-24006,Rb(BH)6,202,Fm3,cubic,3D,5.5106,na,-158.42585,571.0706,999.5102382,191.966558,39823.10833,588.6348533,0.414301254,0.114452536,0.771587908,0.771587908,-138.0735,542.74813
JVASP-24017,LiHF2,166,R-3m,trigonal,3D,8.4225,1.929,-164.5611867,494.06663,954.0470594,1472.25526,35203.52367,6029.672433,0.401157241,0.838949328,0.748794982,0.748794982,-165.7136167,503.93949
JVASP-24023,K(BH)6,202,Fm3,cubic,3D,5.6493,na,-163.66629,513.46302,1035.888163,223.0229819,38671.80067,845.9238633,0.433646723,0.132659349,0.827578492,0.827578492,-139.18303,517.71186
JVASP-24028,MgH4(ClO)2,12,C2/m,monoclinic,0D,5.5397,7.7068,-128.31162,401.5460333,930.5479189,976.9988137,56587.685,6837.2315,0.339421681,0.535634744,0.540615377,0.540615377,-111.8281167,454.24642
JVASP-24214,P3Au2,12,C2/m,monoclinic,3D,0.0201,na,-52.06847467,24.27569467,826.2677613,1430.656433,162201.7283,150103.246,0.117466776,0.161676284,4.46E-05,4.46E-05,-50.33579773,24.43986833
JVASP-24241,KLi3PbO4,2,P-1,triclinic,3D,1.5555,2.6827,-139.3616433,439.1436,769.6969982,566.1889614,39577.86367,3103.3432,0.312259191,0.329003553,0.573305671,0.573305671,na,na
JVASP-24242,ErGeBiO5,61,Pbca,orthorhombic,3D,3.4513,na,-133.7873633,370.43907,706.3539445,283.7071017,37748.139,2112.457267,0.271680444,0.167793521,0.378765518,0.378765518,-139.6855567,375.82034
JVASP-24245,NaZr2CuF11,2,P-1,triclinic,3D,4.1464,3.8194,59.46178833,54.88284567,37.58744538,35.65753701,12748.10893,12874.44917,0.017259376,0.016061982,0.000597655,0.000597655,-55.241023,-54.51572933
JVASP-24251,Na9ZrP4ClO16,1,P1,triclinic,3D,4.2844,4.5114,-358.92979,383.4123533,284.9474076,62.82635454,1946.793371,466.8339317,0.16816439,0.037463173,340.0719036,340.0719036,-347.5474667,425.4695633
JVASP-24252,BaSrTa2O7,71,Immm,orthorhombic,3D,2.2435,3.5383,-136.4574213,315.33931,1740.728861,875.4860335,60732.49033,8123.06144,0.514938314,0.448208521,12.52422709,12.52422709,-142.4699687,348.9113367
JVASP-24253,NaSmSe2O7,14,P2_1/c,monoclinic,3D,3.498,na,-238.19413,297.3663433,683.2155589,170.0918982,10526.1374,1894.645167,0.371255871,0.1013429,4.605557014,4.605557014,-246.2501067,310.289
JVASP-24254,CrCdF6,148,R-3,trigonal,3D,1.824,0.0874,-19.644321,-20.47781267,46.7336766,48.85280502,88084.94733,87981.28967,0.019461153,0.020337531,2.90E-05,2.90E-05,46.7812,44.64002567
JVASP-24258,Zn2Si3Pb4SO15,4,P2_1,monoclinic,3D,3.6258,na,-231.4928,262.9626767,652.1834,288.8277455,12417.2212,4317.443033,0.333919831,0.16920512,4.685153692,4.685153692,-224.6771733,260.2566133
JVASP-24259,BaBiBO4,62,Pnma,orthorhombic,3D,3.4579,4.582,-244.44688,422.1259933,1858.739498,343.268239,31119.8751,1795.138253,0.727396877,0.202624348,1.767287329,1.767287329,-275.32704,424.18563
JVASP-24260,NaVF4,14,P2_1/c,monoclinic,3D,0.004,na,-20.5692319,-21.6022979,378.6372646,389.0623973,419617.405,416815.7777,0.021870352,0.022191353,0.000281053,0.000281053,12.41080663,12.16459753
JVASP-24261,Rb2Mo3O10,15,C2/c,monoclinic,3D,3.3492,3.9477,-400.4985533,350.5543367,146.5781524,248.3238603,928.4447333,2191.856247,0.087593505,0.146662866,41.32240132,41.32240132,na,na
JVASP-24262,Cd(InS2)2,227,Fd-3m,cubic,3D,1.0379,2.5661,-39.230107,403.99271,218.9264483,1549.661212,142252.2833,9494.884933,0.043523795,0.875863918,0.122273018,0.122273018,-41.915678,398.59951
JVASP-24263,CdSeO3,14,P2_1/c,monoclinic,3D,3.6871,na,-242.32478,451.01621,1084.087226,332.5472406,17428.43937,1647.06067,0.506058104,0.1971984,4.763900311,4.763900311,-207.0412367,412.4693233
JVASP-24267,RbGeBiS4,14,P2_1/c,monoclinic,3D,1.8526,2.5028,-166.57825,351.9797867,1106.755613,664.6961709,39371.57991,5026.795523,0.414753076,0.377331864,41.39723931,41.39723931,-186.53945,355.7957333
JVASP-24270,Nd3Si2S8Br,15,C2/c,monoclinic,3D,2.6835,3.4336,-278.0618967,327.4819033,630.5367648,709.227571,8047.690333,6266.4713,0.361861556,0.405931232,2.510583995,2.510583995,na,na
JVASP-24273,BaCrF6,166,R-3m,trigonal,3D,2.1111,na,-14.89422833,-15.94838067,19.18496517,21.78609317,83174.43933,83066.45833,0.008513019,0.009685607,2.57E-05,2.57E-05,48.23028733,46.06690467
JVASP-24274,Na2Te4MoO12,15,C2/c,monoclinic,3D,2.4808,3.182,-338.6406167,365.48309,214.9778886,427.0414419,1973.222603,3415.528867,0.128031823,0.252244405,10.40025916,10.40025916,-362.53313,341.6160433
JVASP-24276,Rb2U3(IO5)4,2,P-1,triclinic,3D,2.1218,2.0454,-419.45383,353.0238967,87.53427801,28.70078889,494.6859547,274.8904367,0.052220426,0.017217038,202.5251441,202.5251441,-408.41838,336.89132
JVASP-24278,AgTeO3,14,P2_1/c,monoclinic,3D,1.2512,1.3619,-215.0542333,391.3719333,950.5533899,525.9445173,19856.904,3430.052067,0.465449756,0.309360275,1.131772107,1.131772107,-209.95174,408.68512
JVASP-24279,Ni2Hg2SF6,227,Fd-3m,cubic,3D,0.0297,na,-17.93887,-19.234426,121.6112213,139.0666558,377905.7367,375893.27,0.013673959,0.015739831,6.74E-06,6.74E-06,-19.203333,-19.620357
JVASP-24280,RbBa4Sb3O,140,I4/mcm,tetragonal,3D,0.9736,na,-310.60837,256.9635967,3122.872275,1083.130669,30380.64267,15477.26647,1.434614872,0.568087709,1.326411666,1.326411666,-333.2781967,267.0401833
JVASP-24282,CdB2XeF10,14,P2_1/c,monoclinic,2D,2.7528,na,-291.2435533,345.2034767,366.3960484,81.06062966,5053.292084,739.492722,0.210913742,0.048331902,299.3411307,299.3411307,na,na
JVASP-24284,Rb2Al2B2O7,14,P2_1/c,monoclinic,3D,4.5291,na,-86.45317433,425.5335033,496.7867428,33.52496324,66277.70767,229.3903993,0.159746073,0.020071772,0.306767992,0.306767992,-123.0373167,363.2922467
JVASP-24285,Na4Al3Ge3ClO12,218,P-43n,cubic,3D,4.1708,6.8222,-99.143879,478.11981,573.6651399,130.7680762,58361.527,572.04245,0.199414374,0.078277721,0.368053863,0.368053863,na,na
JVASP-24288,Er2Te5O13,2,P-1,triclinic,2D,3.0385,4.6989,-265.1759,262.8758067,528.8327758,232.3464044,7438.911767,3322.2745,0.306691931,0.137535742,1.927204636,1.927204636,-297.8054767,285.2121133
JVASP-24293,Na2CoGeO4,7,Pc,monoclinic,3D,0.0365,0.021,-17.1499019,-17.72968927,794.2319049,866.443898,922970.131,912857.7013,0.028570729,0.031731486,7.10E-05,7.10E-05,-127.0441067,388.0845233
JVASP-24296,NaNb3(TeO4)4,11,P2_1/m,monoclinic,3D,2.0921,na,-288.49192,272.9404533,1066.55625,412.523423,14893.17454,5232.834883,0.492549593,0.23513872,121.336868,121.336868,-327.38063,303.8491867
JVASP-24297,BaZr(BO3)2,167,R-3c,trigonal,3D,4.2509,na,-246.47346,331.09044,1001.244067,1001.897664,15281.27127,8796.9513,0.505182423,0.545048188,2.054699196,2.054699196,-269.44371,348.0974067
JVASP-24299,Ba4Na(BiO4)3,229,Im-3m,cubic,3D,0.4303,1.0221,-84.47261867,363.8402467,492.3533342,1349.883161,68999.345,10197.05367,0.153924309,0.681707587,0.028546615,0.028546615,-82.344737,353.13798
JVASP-24301,SrBi2(B2O5)2,2,P-1,triclinic,2D,3.6316,4.9561,-362.2985733,338.1910533,419.0042924,537.7023875,3244.885867,4680.913833,0.244150791,0.312829504,8.14670894,8.14670894,na,na
JVASP-24305,IOF3,19,P2_12_12_1,orthorhombic,0D,3.4402,4.8998,-227.7413167,325.7648833,1199.479126,759.3055347,23061.18933,7052.590067,0.565859409,0.418866814,0.831543229,0.831543229,-352.7027267,400.6103833
JVASP-24306,Ba5Ta2Cl2O9,194,P6_3/mmc,hexagonal,3D,3.3559,5.1701,-159.4513267,297.05381,754.8911404,558.8679843,29219.15571,7414.752233,0.314024295,0.307844768,8972.644678,8972.644678,-138.762775,376.25381
JVASP-24307,SbTeClO3,62,Pnma,orthorhombic,3D,3.2956,4.6139,-292.72895,341.67056,1419.710577,1178.165931,15459.5603,10510.61024,0.674056498,0.642909957,1.809180318,1.809180318,-269.3407867,353.3360667
JVASP-24308,RbLuP2O7,14,P2_1/c,monoclinic,3D,5.3475,na,-97.79448567,351.0495867,632.2598214,183.7032813,65647.09067,1464.010063,0.202274717,0.109413415,0.407232169,0.407232169,-130.69313,374.2351767
JVASP-24310,U8FeS17,12,C2/m,monoclinic,3D,0.0014,0.0007,-4.345722633,-4.79878698,21.99066044,21.98827528,43141.515,43087.54967,0.008750817,0.008722439,6.35E-05,6.35E-05,-5.411012083,-5.630064233
JVASP-24312,RbU2SbS8,8,Cm,monoclinic,3D,0.0031,0.0005,-67.99657467,-70.027199,464.9860828,485.7999643,76693.39,75203.66333,0.150458159,0.15921399,0.000416651,0.000416651,-5.830789387,-6.346595603
JVASP-24314,NiPbF6,148,R-3,trigonal,3D,0.9157,0.5554,-397.7233333,431.3799233,822.8960678,928.4724427,5298.629,4982.029133,0.476225147,0.541692375,2.920260006,2.920260006,-113.3466167,-117.6042767
JVASP-24318,Pr2Zr2O7,227,Fd-3m,cubic,3D,3.7853,4.6833,-195.66918,370.12318,814.2599767,1406.853681,21267.588,10269.667,0.400022746,0.798568285,1.006304399,1.006304399,-180.50186,399.6976
JVASP-24319,BaSr4U3O14,64,Cmce,orthorhombic,3D,2.1628,na,-358.0720233,384.8359433,7.479014347,239.6464445,57.41583487,1607.245,0.004486173,0.14278969,603.8416918,603.8416918,-372.99607,402.51583
JVASP-24320,Ba2Ru7O18,2,P-1,triclinic,3D,0.0101,na,-6.071332567,-6.9850821,359.2341869,355.8112469,214920.6467,214535.8967,0.0547154,0.054217192,1.41E-05,1.41E-05,na,na
JVASP-24321,NaPPdS4,140,I4/mcm,tetragonal,3D,1.1162,1.3389,-246.1728533,271.43261,2741.835544,1204.526245,47652.67933,15768.756,1.019089088,0.61968536,0.839073075,0.839073075,-265.6887033,271.57897
JVASP-24326,RbMgAs(H6O5)2,31,Pmn2_1,orthorhombic,3D,4.3987,6.5853,-121.8059933,457.87124,762.2743306,141.5138505,53323.24767,739.04232,0.277927901,0.084666734,0.523966081,0.523966081,-129.3933133,461.3012567
JVASP-24329,K2ZrSi2O7,14,P2_1/c,monoclinic,3D,4.7852,5.3896,-305.1484533,283.0073533,481.6179474,642.7027785,4430.5985,7385.612017,0.272248867,0.358466186,3.704055168,3.704055168,-317.8295733,320.0579967
JVASP-24333,Nd4S3NCl3,186,P6_3mc,hexagonal,3D,3.0762,3.8053,-394.32199,342.5640167,676.8030881,913.2179184,4357.634133,7765.432333,0.398683054,0.513140716,4.575328422,4.575328422,-397.2431033,370.3791267
JVASP-24335,Na4TiAs2O9,12,C2/m,monoclinic,3D,3.0773,2.6363,-385.6140367,432.4885133,830.8127326,217.3283211,6058.36497,1269.663387,0.446016165,0.129602144,427.6361618,427.6361618,-401.0197767,440.3032667
JVASP-24337,NaLiCO3,174,P-6,hexagonal,3D,4.7318,na,-358.63965,387.0363467,760.5388612,176.2502081,4669.326733,1208.88494,0.421548051,0.10498265,6.938590554,6.938590554,-202.3452767,388.82146
JVASP-24338,Ba5Al2In2IrClO13,194,P6_3/mmc,hexagonal,3D,2.86,na,-15.29418133,-19.11483867,60.74842277,66.72943275,49392.31447,48056.61386,0.020522111,0.022175892,0.01725208,0.01725208,-17.76843967,-17.46606033
JVASP-24340,Li2U3P2O15,141,I4_1/amd,tetragonal,3D,2.4497,na,-484.26756,404.3612533,74.21254127,270.5412234,316.3628533,1629.387303,0.04445938,0.160624036,46.83215339,46.83215339,-481.0728667,428.7549533