JID,Composition,Spg.numb.,Spg.symb.,Cryst.,Dimensionality,OPT SCF gap, MBJ gap,n-Seebeck,p-Seebeck,n-powerfact,p-powerfact,n-cond,p-cond,n-ZT,p-ZT,Avg.elec.mass,Avg.hole mass,n-mp-Seeb,p-mp-Seeb
JVASP-574,NbS2,160,R3m,trigonal,2D,0.0209,0.0035,49.43262309,48.36930777,1497.034195,1571.817201,1496018.983,1493437.523,0.252121953,0.257849322,1.25E-05,1.25E-05,na,na
JVASP-213,HfSe3,11,P2_1/m,monoclinic,2D,0.032,0.9757,-65.45563667,61.90233,5376.474068,1981.42401,101865.3438,42310.8086,0.662843049,0.547047321,0.0029662,0.0029662,na,na
JVASP-4648,YbAgGe,189,P-62m,hexagonal,2D,0.0067,0.0097,8.043025033,7.530063767,316.3873572,313.6902303,2383934.2,2395533.067,0.004025178,0.003892722,1.22E-06,1.22E-06,na,na
JVASP-4319,USi2,191,P6/mmm,hexagonal,3D,0.0087,na,-0.718921333,-0.687599,301.5155192,300.1671896,1790116.933,1788964.367,0.007112315,0.00707802,1.63E-06,1.63E-06,23.29946967,23.121087
JVASP-347,WS2,160,R3m,trigonal,2D,0.6969,1.5743,149.9757143,160.4756,1.615126651,956.6689306,22.93498087,37206.79567,0.000966519,0.395056887,75.79353333,75.79353333,-331.7491267,181.82106
JVASP-4654,NbP,141,I4_1/amd,tetragonal,3D,0.0007,0.0027,13.77262143,13.83125617,716.6833744,715.0064064,3457916.533,3467995.3,0.014750424,0.014506615,9.24E-07,9.24E-07,10.95521613,10.93628973
JVASP-17,BN,194,P6_3/mmc,hexagonal,2D,4.4598,6.1146,-287.36652,412.6643433,3677.69393,2879.212785,41195.822,16365.4261,1.348301094,1.465092045,0.972536754,0.972536754,-349.50572,361.5374533
JVASP-210,HfS2,164,P-3m1,trigonal,2D,1.0778,1.684,-308.15839,292.9573167,4163.152814,2224.551923,39208.5098,32168.99333,1.575639135,0.956916676,1.244527489,1.244527489,na,na
JVASP-216,HfSe2,164,P-3m1,trigonal,2D,0.0663,na,-273.0862167,258.98354,4226.202443,2963.346837,50459.06967,44798.99067,1.414919051,1.203543804,0.704117637,0.704117637,na,na
JVASP-4657,GaS,166,R-3m,trigonal,2D,1.3455,2.5243,-153.8152667,201.2855067,2052.408526,1663.800888,86112.85367,48536.667,0.490739118,0.555982858,0.214702645,0.214702645,-103.0153987,307.3752033
JVASP-368,ZrS3,11,P2_1/m,monoclinic,2D,1.206,1.5608,-196.1237633,319.16037,1404.474813,1718.696761,29333.06657,15311.34887,0.541416377,0.789281369,1.93578929,1.93578929,-174.7764567,319.9229233
JVASP-4660,DyBC,65,Cmmm,orthorhombic,2D,0.0007,na,-14.85400197,-14.8256669,352.855783,321.3041733,1933076.977,1921637.12,0.008809253,0.008920684,5.31E-06,5.31E-06,na,na
JVASP-578,NbS2,164,P-3m1,trigonal,2D,0.0534,0.0615,-5.0294547,-5.662942333,48.58952101,61.25866815,3725460.467,3719906.877,0.002056665,0.002487697,1.40E-06,1.40E-06,na,na
JVASP-290,SnS2,186,P6_3mc,hexagonal,2D,1.1012,1.9637,-181.4144133,384.36511,2203.931556,2182.604413,66102.85333,18656.3482,0.728806016,1.077929125,0.373142353,0.373142353,-242.6178533,431.31849
JVASP-152,SiP2,55,Pbam,orthorhombic,2D,1.1944,1.6184,-262.6321067,225.97687,4002.208527,965.3259893,57390.72067,16411.31087,1.054412795,0.476974255,1.227954886,1.227954886,-217.5388467,296.0024933
JVASP-7,Te2Mo,31,Pmn2_1,orthorhombic,3D,0.0045,na,-11.015107,-9.725458867,250.8220304,261.3395017,671862.8767,661548.64,0.010903692,0.011206776,4.75E-06,4.75E-06,na,na
JVASP-79,Te2Mo,31,Pmn2_1,orthorhombic,3D,0.0013,na,-30.84869933,-25.469621,413.2745129,317.5208191,396641.3033,374689.4707,0.024560162,0.018504933,6.43E-05,6.43E-05,na,na
JVASP-8,Te2Mo,31,Pmn2_1,orthorhombic,3D,0.0013,na,-8.242078267,-1.257617667,306.2699647,207.1573415,288742.6933,283708.68,0.019285622,0.013495931,1.21E-05,1.21E-05,na,na
JVASP-90,P,64,Cmce,orthorhombic,3D,0.0279,na,-25.286104,8.586109367,483.2262589,135.1289146,407624.9867,394224.34,0.034337397,0.008105306,9.42E-06,9.42E-06,na,na
JVASP-27,P,64,Cmce,orthorhombic,3D,0.0639,na,-151.67933,120.8367567,1562.835139,997.5539765,80640.084,74692.95933,0.375042825,0.27391079,0.007990194,0.007990194,na,na
JVASP-537,TaTe2,12,C2/m,monoclinic,3D,0.0006,0.0012,-3.916139667,-5.398252,513.7164015,487.2364574,825687.3567,835938.8533,0.020637621,0.021298893,5.73E-06,5.73E-06,na,na
JVASP-599,TlCrTe2,164,P-3m1,trigonal,3D,0.0159,0.0086,-19.36921443,-17.4592916,365.4259928,335.3780105,663958.8133,636756.25,0.021362182,0.020899251,4.49E-06,4.49E-06,na,na
JVASP-571,YS2,129,P4/nmm,tetragonal,3D,0.007,0.0203,7.80275996,10.61881791,3.742777501,3.872008933,5637545.446,5642895.857,0.00065582,0.001352628,0.000125515,0.000125515,na,na
JVASP-341,WO2,194,P6_3/mmc,hexagonal,2D,0.0061,0.0021,-12.271546,-12.36148577,1077.889435,1078.024341,3763178.033,3751660.333,0.010701893,0.010752475,7.65E-07,7.65E-07,na,na
JVASP-320,TiS2,166,R-3m,trigonal,2D,0.0062,na,-20.5228165,57.22383667,97.50829888,815.3911749,197985.7717,227321.4393,0.018840661,0.056579745,6.09E-05,6.09E-05,na,na
JVASP-287,SnO2,194,P6_3/mmc,hexagonal,3D,0.6614,1.0572,-21.93797167,24.85974667,388.6460344,2860.351289,134965.9433,133463.921,0.067415095,0.213700691,3.61E-05,3.61E-05,na,na
JVASP-305,TiO2,194,P6_3/mmc,hexagonal,3D,0.0025,0.0001,-33.156943,-33.52050467,1875.144731,1894.99863,1959186.167,1944566.933,0.053310804,0.053923666,1.68E-06,1.68E-06,na,na
JVASP-598,CrS2,166,R-3m,trigonal,2D,0.0035,0.0023,-38.55152657,-34.96062133,792.8509105,808.6847237,437813.11,440224.8933,0.14797939,0.137758434,1.47E-05,1.47E-05,na,na
JVASP-3438,LiInSe2,122,I-42d,tetragonal,3D,1.5763,2.8122,-73.77290633,328.2880567,406.8647209,2431.368979,74324.90333,22559.62767,0.122726247,1.15318859,0.235247135,0.235247135,-73.53911733,334.1390967
JVASP-3426,Li2GePbS4,121,I-42m,tetragonal,3D,2.3283,na,-305.6616067,305.2619433,4103.279521,3246.447093,44003.665,34272.76333,1.721775957,1.489247924,0.499521901,0.499521901,-322.71808,320.01265
JVASP-1948,CuBr,216,F-43m,cubic,3D,0.6203,na,-62.276442,356.20001,391.8612685,2351.417706,101038.0033,18532.838,0.098538301,1.166322893,0.212425362,0.212425362,-58.114198,347.75028
JVASP-2697,NaNbSe2,194,P6_3/mmc,hexagonal,3D,0.6257,1.0426,-272.3588033,205.9531467,3752.320426,1477.837941,52202.16733,37621.84133,1.406693107,0.570952019,0.650391403,0.650391403,-290.3048567,212.9804
JVASP-1167,BeS,216,F-43m,cubic,3D,3.3955,4.3762,-182.01638,290.84288,2322.540722,2985.343692,70103.93433,35292.097,0.765550221,1.212397598,0.402053081,0.402053081,-181.62885,294.0528
JVASP-1254,PtS,131,P4_2/mmc,tetragonal,3D,0.037,0.0277,-221.1153833,320.4327467,1577.077925,3319.888315,32256.54667,31302.5089,0.625800917,1.394464175,0.319696785,0.319696785,-212.4982933,317.88898
JVASP-1444,CrAgSe2,160,R3m,trigonal,3D,0.0171,na,-189.3996833,277.3831767,2421.322754,1171.794104,67577.39033,15911.131,0.737520474,0.477757121,0.01029268,0.01029268,na,na
JVASP-2781,Sr4As2O,139,I4/mmm,tetragonal,3D,1.2211,1.7967,-101.0363547,283.4236367,731.9463688,2078.277521,68178.31233,24493.488,0.219880118,0.992451173,0.55456758,0.55456758,-101.5802233,284.18959
JVASP-1180,InN,186,P6_3mc,hexagonal,3D,0.8317,0.7578,-34.01568133,152.23431,172.4771531,584.8198835,149082.7567,25089.68333,0.033043929,0.161827921,0.000270822,0.000270822,-38.789926,160.2233133
JVASP-1489,NdCuO2,166,R-3m,trigonal,3D,2.4749,2.713,-244.8940233,473.99393,2199.821444,1962.741977,36765.132,8943.7595,0.921203004,1.065704937,0.677718116,0.677718116,-255.8046233,483.39697
JVASP-3849,AuI,138,P4_2/ncm,tetragonal,2D,1.4041,2.1208,-239.1629633,196.4864167,3152.384221,1711.380841,60567.30667,37986.53573,1.103163803,0.631170291,0.537690438,0.537690438,-288.24707,208.9787633
JVASP-1987,InI,63,Cmcm,orthorhombic,1D,1.6159,1.7787,-133.1237767,201.77929,1626.129127,2299.191477,100783.2063,56556.41833,0.37803642,0.743849767,0.30741896,0.30741896,-126.2944667,183.7023833
JVASP-2961,RbAu3Se2,164,P-3m1,trigonal,2D,1.6634,2.3248,-209.54723,210.4805467,2799.997631,1863.060784,63901.172,41770.51133,0.944289071,0.725105519,0.35652775,0.35652775,-158.6975367,226.2202467
JVASP-2172,P2Os,58,Pnnm,orthorhombic,3D,0.7974,0.021,-241.0748533,338.7198333,1987.547113,2533.256413,35126.92133,21931.221,0.821645595,1.201641884,0.825145878,0.825145878,-251.81802,357.1376267
JVASP-1169,ThO2,225,Fm-3m,cubic,3D,4.8234,5.0126,-463.73624,355.88222,3139.27881,4547.339262,14597.81367,35904.16033,1.693596691,1.954885139,1.897822683,1.897822683,-488.67068,443.96953
JVASP-4095,K4BeAs2,166,R-3m,trigonal,3D,1.0002,na,-80.76472,409.17631,535.6726045,867.14966,82235.51367,4936.504767,0.154133468,0.503058803,0.284636799,0.284636799,-78.57574533,407.6711633
JVASP-1957,AgI,216,F-43m,cubic,3D,1.2601,2.8678,-59.973384,295.43496,373.5380484,2582.674044,103852.6867,29590.05867,0.092486763,1.137316275,0.19977501,0.19977501,-61.334863,300.4692
JVASP-3975,RbLiBr2,63,Cmcm,orthorhombic,3D,4.5272,3.1989,-98.44908067,428.54104,649.8822163,1534.121682,67743.336,11178.66772,0.209621564,0.782697075,0.388211794,0.388211794,-103.5404767,440.6155567
JVASP-3183,SrCuSF,129,P4/nmm,tetragonal,3D,1.7739,2.8153,-104.6583193,340.4797433,637.1426562,1690.118989,57359.75533,15927.7078,0.220703745,0.852384942,0.406317294,0.406317294,-94.22418633,337.87997
JVASP-2436,NaSbS2,15,C2/c,monoclinic,3D,0.7555,1.6338,-244.7635233,115.84493,4762.091045,815.0389289,73317.958,61427.37867,1.325824845,0.253904152,1.334764445,1.334764445,-262.2858867,125.2126667
JVASP-1291,YbO,225,Fm-3m,cubic,3D,3.5808,5.8034,-208.85738,411.77581,2607.695279,3950.112815,59780.176,23296.34767,0.933080432,1.753160866,0.482061213,0.482061213,-209.13235,395.4366
JVASP-1930,2-Feb,164,P-3m1,trigonal,2D,0.0006,0.0002,4.096122667,3.86608,632.4896993,608.7057985,366104.988,371885.464,0.058014828,0.055273534,0.000102808,0.000102808,-406.0702767,-146.6490367
JVASP-2385,NaZnP,129,P4/nmm,tetragonal,3D,0.8346,1.7558,-139.6303,272.9274067,1490.786331,4100.556858,89877.0164,47188.72947,0.364105418,1.467689068,1.917196446,1.917196446,-157.63097,271.7390833
JVASP-1261,HgF,139,I4/mmm,tetragonal,2D,1.8305,2.373,-151.3052,440.1369767,1251.56198,1379.434237,57149.972,6649.629767,0.397815079,0.775677006,0.855338094,0.855338094,-141.4869967,446.8735733
JVASP-1471,CrAgS2,160,R3m,trigonal,3D,0.7277,0,-317.4983267,378.9991533,4108.671453,1950.713617,40733.49,13667.47333,1.716606356,1.043342458,0.619479363,0.619479363,-252.68795,383.9271767
JVASP-3273,K3As,194,P6_3/mmc,hexagonal,3D,0.523,1.5337,-51.953724,140.4971767,297.9199391,167.8094728,110395.869,8149.719,0.071246955,0.05807754,0.002305288,0.002305288,-50.10930633,31.32724133
JVASP-1426,ScSnAu,216,F-43m,cubic,3D,0.091,0.0963,-207.15828,222.93314,2258.226433,2256.735486,52621.46,45407.89733,0.588010015,0.560564615,0.001805963,0.001805963,-153.49492,171.79877
JVASP-3618,BaBrF,129,P4/nmm,tetragonal,3D,4.9062,6.3792,-106.4817607,403.4512533,764.5876756,928.3014538,62773.68767,5505.814167,0.240582493,0.528893093,0.452399361,0.452399361,-134.9214533,424.63715
JVASP-2382,Ga2HgS4,82,I-4,tetragonal,3D,1.5332,2.8314,-66.349234,361.5398667,414.8815629,2005.319229,94301.62867,15345.34467,0.10757103,1.033918549,0.212685897,0.212685897,-64.589942,393.75198
JVASP-2778,Sr4P2O,139,I4/mmm,tetragonal,3D,1.2212,1.9295,-102.7850063,300.2746267,725.0955395,1851.167382,66104.46033,19147.688,0.222983896,0.925623506,0.568937175,0.568937175,-100.736195,300.7106467
JVASP-3825,ErSCl,59,Pmmn,orthorhombic,2D,2.844,3.9386,-295.67939,350.2202833,2568.924872,2093.417916,32212.23033,29471.57867,1.046334093,0.883338803,0.884385549,0.884385549,-316.55391,323.1167067
JVASP-2322,DyAgTe2,113,P-42_1m,tetragonal,3D,0.8761,1.3398,-186.3609967,205.9874167,1471.337129,1948.85315,40712.97167,46321.99033,0.533890342,0.693704621,0.785881023,0.785881023,-210.02863,214.4065
JVASP-2145,Al4C3,166,R-3m,trigonal,3D,1.5269,na,-222.04677,328.6597133,3679.708949,1697.025829,62857.17333,14290.01463,1.17853667,0.864918802,0.553813455,0.553813455,-215.86957,324.2513267
JVASP-2208,BaZrN2,129,P4/nmm,tetragonal,3D,1.0919,na,-126.3963967,271.4634267,1188.247159,2674.117493,81282.60294,34093.60787,0.317205223,0.981920225,9.495420883,9.495420883,-123.00059,276.87586
JVASP-1522,NaNbN2,166,R-3m,trigonal,3D,0.8916,1.378,-269.6602533,315.7314667,2705.245483,3910.432177,36623.07267,67416.529,1.08629487,1.199835696,0.78314754,0.78314754,-265.0657467,301.45163
JVASP-2154,ZnF2,136,P4_2/mnm,tetragonal,3D,3.6318,6.3907,-144.64152,486.75957,1045.279742,2818.382335,51046.11467,11681.86903,0.391314434,1.538083395,0.692050607,0.692050607,-111.30532,496.36545
JVASP-3126,TaCu3S4,215,P-43m,cubic,3D,2.0566,2.1256,-316.42205,281.30942,2095.690429,1965.149942,20931.177,24832.883,1.073310634,0.88482979,1.216498295,1.216498295,-329.92006,311.88639
JVASP-4047,Li4NCl,166,R-3m,trigonal,3D,1.9616,2.9192,-207.8797767,340.5341333,2426.969729,1992.236177,56828.35767,16845.23967,0.867475617,0.981562806,0.543972213,0.543972213,-211.69225,321.3722
JVASP-1408,AlSb,216,F-43m,cubic,3D,1.3217,1.7769,-248.10686,256.83378,6386.663314,4028.123496,103752,61065.86167,1.757087735,1.413955392,0.2315008,0.2315008,-249.83829,239.39704
JVASP-3927,PrClO,129,P4/nmm,tetragonal,3D,4.6469,5.8751,-98.39339367,421.2531233,626.1444023,1278.469207,61821.23633,7042.126867,0.200058354,0.734009606,0.406119597,0.406119597,-145.6046667,444.7793167
JVASP-1999,RbCl,225,Fm-3m,cubic,3D,5.0751,7.8694,-115.81565,489.96557,800.2107682,1410.076526,59658.16533,5873.697233,0.276450136,0.813127111,0.47157468,0.47157468,-113.52061,490.50933
JVASP-2505,RbCdF3,221,Pm-3m,cubic,3D,3.269,6.2864,-128.10078,359.4102,883.2768857,2931.270947,53826.15,22692.125,0.318101295,1.483224499,0.51983961,0.51983961,-111.68767,361.27676
JVASP-1546,RbErO2,166,R-3m,trigonal,3D,3.706,5.366,-231.20468,457.59033,2482.511157,1797.165434,46469.28567,8575.0754,0.968241125,1.007377302,0.588805368,0.588805368,-242.0067967,448.7358767
JVASP-2547,Na2AgSb,63,Cmcm,orthorhombic,3D,0.7561,na,-192.81729,268.92532,2531.0994,2899.798346,66556.82233,37931.20033,0.798450834,1.01661607,0.609391215,0.609391215,-183.9973667,276.51165
JVASP-1276,SrS,225,Fm-3m,cubic,3D,2.5397,3.6129,-201.40747,286.76866,2538.652168,2211.472457,62582.37667,26891.694,0.897139387,0.991806462,0.44716977,0.44716977,-204.24782,293.67571
JVASP-1582,Rb2S,225,Fm-3m,cubic,3D,1.9785,4.4112,-98.22835833,470.12489,700.0484446,1205.554217,72552.82433,5454.5667,0.219483245,0.702003408,0.398743312,0.398743312,-93.89907,479.12881
JVASP-3252,Sm2SeO2,164,P-3m1,trigonal,3D,2.3161,3.697,-195.4396167,263.8167467,1592.537564,2100.333722,42101.144,27990.79747,0.641715896,0.911082921,0.647336344,0.647336344,-197.4885967,261.5671367
JVASP-2661,Al2HgS4,82,I-4,tetragonal,3D,2.0745,3.0307,-84.78807833,427.35825,555.8197264,886.8912437,73385.71467,4850.269167,0.159869146,0.516319385,0.279218626,0.279218626,-80.37885733,424.5753433
JVASP-2565,KZnP,194,P6_3/mmc,hexagonal,3D,0.9378,2.1006,-140.9082633,225.1948267,1666.204549,2946.432723,89163.51033,45698.2663,0.381887892,1.030009837,0.206535417,0.206535417,-108.00175,219.45213
JVASP-1327,AlP,216,F-43m,cubic,3D,1.7939,2.5631,-166.31559,314.76214,2140.817588,3827.248443,77395.14933,38629.73033,0.671779181,1.559478271,0.34459882,0.34459882,-174.01248,293.77231
JVASP-1495,NaLi2Sb,225,Fm-3m,cubic,3D,0.9294,na,-126.59575,255.61925,1660.155583,3502.146691,103588.26,53597.83167,0.439144272,1.266438994,0.239682714,0.239682714,-142.38166,242.1257
JVASP-1894,NaInS2,166,R-3m,trigonal,3D,1.8475,3.1912,-196.27422,419.4699,2307.703078,2804.234121,59586.15167,16932.08877,0.799411081,1.416471781,0.460177509,0.460177509,-198.45604,401.7664633
JVASP-2889,Rb2NbF6,164,P-3m1,trigonal,3D,0.3971,0.1624,-18.68980867,-20.13384,209.4300561,197.2769756,18096.53567,18463.14767,0.111404992,0.104871397,0.000355117,0.000355117,na,na
JVASP-2775,BaTiF6,166,R-3m,trigonal,3D,4.2841,4.2002,-460.1483167,346.5426433,163.852782,1121.878712,774.7837367,9511.612233,0.098175292,0.609722019,12.12281875,12.12281875,-464.7866433,366.068
JVASP-3327,Sm2TeO2,139,I4/mmm,tetragonal,3D,1.5701,2.3103,-345.6403567,311.1693,1402.084095,5013.104493,10576.46003,48398.43967,0.742321444,1.816736567,9.959039862,9.959039862,-334.9957267,299.9802
JVASP-1804,KPrS2,166,R-3m,trigonal,3D,2.254,3.2612,-271.9189933,309.2088467,3091.030312,1557.719802,41260.93767,16184.4517,1.283928756,0.775904709,0.724457809,0.724457809,-245.3876067,317.3516433
JVASP-1786,SmCuO2,166,R-3m,trigonal,3D,2.5872,2.7999,-254.0098433,474.8974767,2313.131466,1879.134592,35908.58633,8643.963067,0.967316479,1.016912235,0.685234422,0.685234422,-265.4315567,495.4914567
JVASP-2133,HgO,62,Pnma,orthorhombic,3D,1.2171,1.9162,-279.3225533,357.3499633,2073.24408,2529.85953,26078.76567,17800.0112,0.965893527,1.230345518,1.431780082,1.431780082,-273.5048967,373.5611133
JVASP-2301,SmSF,129,P4/nmm,tetragonal,3D,1.3074,2.443,-119.6867633,280.3999233,923.7822992,2143.669691,65208.87967,29620.99277,0.296195993,0.911487854,0.605603576,0.605603576,-113.37724,300.7331233
JVASP-2190,K2O2,64,Cmce,orthorhombic,3D,2.6955,4.8343,-249.8742567,465.9810467,1643.825863,344.0165066,24157.36167,1586.3432,0.746218962,0.204581773,1.082707414,1.082707414,-264.1373767,481.5011467
JVASP-3720,K2MgH4,139,I4/mmm,tetragonal,3D,3.9641,6.221,-224.90661,375.87501,2733.247197,2054.785282,54055.91167,15266.0688,1.0158246,1.074563479,0.477226351,0.477226351,-223.5537333,369.16875
JVASP-2853,RbLiS,129,P4/nmm,tetragonal,3D,3.0625,3.6788,-105.90664,361.3325,634.6322467,1368.10572,55977.639,10036.33057,0.217278085,0.71794326,0.409592481,0.409592481,-93.26994867,359.5846367
JVASP-2160,FeAs2,58,Pnnm,orthorhombic,3D,0.0044,na,-101.8389657,114.3504467,743.8437407,723.3543493,36052.43,34280.55733,0.129668511,0.141414378,0.001122129,0.001122129,-220.7470033,233.71336
JVASP-1447,NaErS2,166,R-3m,trigonal,3D,2.3589,3.3022,-254.84134,315.0866933,2992.332194,2053.522545,45590.11933,21024.44167,1.185428511,0.981383659,0.624248462,0.624248462,-237.9766767,320.57722
JVASP-2844,K2Te2Pt,71,Immm,orthorhombic,3D,0.8637,1.3234,-223.5005733,358.1775233,3788.234781,2640.925957,59316.42767,18701.75333,1.246517036,1.251344919,6.21091634,6.21091634,-213.53162,360.66394
JVASP-2931,Al2Te5,12,C2/m,monoclinic,2D,1.055,1.5474,-182.6262367,251.8920533,1584.091956,2093.005623,44739.95267,33604.601,0.524084446,0.833443108,1.035402801,1.035402801,-171.6607233,243.2862767
JVASP-2289,K2PtF6,164,P-3m1,trigonal,3D,2.5546,na,-422.8783067,469.4757533,710.6586596,488.3562361,3919.73211,2222.671967,0.415617261,0.289910934,36.76761925,36.76761925,-418.0981033,473.3933567
JVASP-3414,InS,58,Pnnm,orthorhombic,2D,1.0367,1.7693,-137.8355933,222.8514433,927.5680283,1337.919887,48931.77767,23735.27583,0.339169547,0.604820472,0.583306654,0.583306654,-142.1941933,223.72411
JVASP-2751,Sr(ZnP)2,164,P-3m1,trigonal,3D,0.7675,1.4554,-210.10695,200.2341467,3343.184112,2181.421858,107925.4497,54628.07167,0.687523732,0.764164244,5.943968625,5.943968625,-225.1829333,196.78991
JVASP-1555,LiZnN,216,F-43m,cubic,3D,0.8256,na,-54.953519,326.90907,325.4973737,2986.066042,107784.54,27941.22667,0.078259944,1.350944022,0.167979269,0.167979269,-46.185839,315.90595
JVASP-3009,Ca(ZnAs)2,164,P-3m1,trigonal,3D,0.3117,na,-108.266276,187.9065333,1305.905167,2088.790733,136479.444,59187.94767,0.228009249,0.714258213,0.518712467,0.518712467,-128.864806,184.1330967
JVASP-1609,NaRhO2,166,R-3m,trigonal,3D,1.3171,1.4829,-346.8922633,478.5484267,2881.124911,825.7712658,23973.27133,3519.275263,1.383464556,0.477826707,1.037955498,1.037955498,-343.2958733,474.3585833
JVASP-2391,GaAgTe2,122,I-42d,tetragonal,3D,0.0184,na,-62.33602167,229.8175533,436.2106863,2477.80176,112306.0567,46960.41067,0.080455768,0.893138013,0.002768716,0.002768716,-60.452864,234.0098167
JVASP-3786,K2MnCl6,225,Fm-3m,cubic,3D,0.9903,1.17,-205.04497,384.28144,1138.185117,2199.154565,27071.646,14892.134,0.533836804,1.178650424,0.84697451,0.84697451,-220.44929,393.61117
JVASP-3654,ScCl3,148,R-3,trigonal,2D,3.5349,3.8642,-449.4545467,356.8702067,698.4507264,941.8660995,3295.380767,7930.598233,0.410672455,0.520969474,14.39091196,14.39091196,-441.65293,440.5311233
JVASP-3180,KAuF6,166,R-3m,trigonal,3D,2.0025,2.1427,-462.9874233,413.08292,1116.662697,790.4947694,5222.584733,4689.829667,0.648004956,0.46250631,5.499878139,5.499878139,-456.6306933,434.5072667
JVASP-3612,K2PdCl6,225,Fm-3m,cubic,3D,1.1074,1.7962,-250.74898,380.0107867,2052.86486,2169.460147,32649.91167,15023.10933,0.923617105,1.183045515,0.797279182,0.797279182,-256.07505,401.40267