JID,Composition,Spg.numb.,Spg.symb.,Cryst.,Dimensionality,OPT SCF gap, MBJ gap,n-Seebeck,p-Seebeck,n-powerfact,p-powerfact,n-cond,p-cond,n-ZT,p-ZT,Avg.elec.mass,Avg.hole mass,n-mp-Seeb,p-mp-Seeb
JVASP-3489,VCu3Se4,215,P-43m,cubic,3D,0.9754,na,-364.03228,253.31011,1283.85836,2178.818339,9688.0712,33955.957,0.713612922,0.895259656,1.733970187,1.733970187,-382.78839,284.54787
JVASP-3243,Ca4Sb2O,139,I4/mmm,tetragonal,3D,0.9539,1.3325,-100.7711583,200.4817567,800.0973773,1930.461132,77634.946,47670.769,0.22307892,0.740528245,0.600339093,0.600339093,-100.9658867,198.0506567
JVASP-1435,LiAlSi,216,F-43m,cubic,3D,0.1113,0.4828,-158.70818,211.40976,2196.563146,4162.634575,87205.73967,93136.137,0.62590797,1.063369745,0.009225669,0.009225669,-139.6234,183.54693
JVASP-2002,LiH,225,Fm-3m,cubic,3D,3.5578,3.3026,-266.46639,347.80742,4356.95111,5553.041986,61361.76033,45904.28967,1.640054431,2.2502187,0.465400711,0.465400711,-206.90159,322.83206
JVASP-1708,RbNdSe2,166,R-3m,trigonal,3D,1.8635,2.8037,-243.0201467,260.2690433,2734.951484,1613.777389,45665.49633,24087.28167,1.057345029,0.738631753,0.603373684,0.603373684,-239.1267967,256.1517367
JVASP-2094,Th3N4,166,R-3m,trigonal,3D,1.6586,na,-319.4544033,287.0941867,3020.859005,1821.708951,29695.88633,24248.2757,1.445547577,0.834624212,0.910602297,0.910602297,-324.1726833,295.3739967
JVASP-3372,Rb2NiO2,139,I4/mmm,tetragonal,3D,1.0015,3.7785,-413.3961433,322.6533367,380.3456904,573.6439916,2369.029957,8462.807867,0.224676561,0.308843107,69.12588487,69.12588487,-412.5111433,333.89794
JVASP-2262,ScCuO2,194,P6_3/mmc,hexagonal,3D,2.4683,2.5482,-338.8315,473.4870967,2570.046078,2005.222459,23212.45167,8975.0136,1.202970572,1.123509708,1.470299875,1.470299875,-351.3426233,473.5791067
JVASP-2139,P2Ru,58,Pnnm,orthorhombic,3D,0.0428,na,-246.89127,264.4082233,1983.735132,3964.443972,33752.34233,55766.58767,0.825045405,1.326148722,0.779578563,0.779578563,-241.5445467,252.6529067
JVASP-1903,ErNiSb,216,F-43m,cubic,3D,0.0856,0.0505,-273.59632,185.45389,3565.918898,2343.044248,47637.719,68125.32633,1.16732249,0.674553985,0.005639099,0.005639099,-276.79038,198.36575
JVASP-2742,ThNF,166,R-3m,trigonal,3D,2.5537,3.1865,-324.1200233,323.9784933,2049.990222,2326.131441,22619.03497,23049.69893,0.960829347,1.062853624,99.80298424,99.80298424,-368.73542,321.6723033
JVASP-1510,RbNdTe2,166,R-3m,trigonal,3D,1.2878,1.8374,-244.3447133,209.7128167,2928.911878,1815.168652,47858.704,38949.17,1.111796604,0.719400838,0.580697011,0.580697011,-239.3401267,199.7554167
JVASP-3771,SnI2,12,C2/m,monoclinic,2D,1.7854,na,-164.1932167,287.4300433,1376.527093,1483.16458,51431.33867,18274.42,0.471133749,0.783355622,0.384622753,0.384622753,-224.5182133,252.4947033
JVASP-3978,P2Pd,15,C2/c,monoclinic,3D,0.0725,0.4997,-242.4261333,265.70995,4055.273889,3327.552065,67333.543,45361.119,1.32070712,1.041467554,0.129735213,0.129735213,-232.5283,297.4977167
JVASP-1645,MgCN2,166,R-3m,trigonal,3D,3.9501,5.1953,-309.5918633,351.84755,2522.142949,1975.946832,26280.523,16036.192,1.160142923,1.000766435,1.142038447,1.142038447,-293.06619,350.8102733
JVASP-3417,BaPbF6,166,R-3m,trigonal,3D,2.8493,4.3449,-166.48216,340.53024,853.1763299,1070.829534,30648.46633,8887.5375,0.376045832,0.589396696,0.765603546,0.765603546,na,na
JVASP-3816,PI3,173,P6_3,hexagonal,0D,1.9722,2.7232,-315.2512033,438.6366833,1513.170747,358.3437877,15095.027,1852.750767,0.819138343,0.212259054,1.548401736,1.548401736,-354.3502767,416.9922333
JVASP-1915,InSe,160,R3m,trigonal,2D,0.3226,na,-41.86282433,169.8826733,222.5740772,1577.152598,131081.82,73839.43667,0.047052985,0.471134515,0.014238174,0.014238174,-48.60889233,209.47685
JVASP-4056,PrIO,129,P4/nmm,tetragonal,2D,3.6859,4.7346,-382.8495167,343.8823367,2639.471144,2104.187084,18629.523,16820.384,1.368229666,1.071659958,1.759302507,1.759302507,-340.5964633,352.57471
JVASP-2739,Rb2PtF6,164,P-3m1,trigonal,3D,2.6122,2.7133,-448.04857,464.5607333,452.4123422,314.1604876,2401.027105,1494.7066,0.267968459,0.187404928,110.9157644,110.9157644,-466.4208467,471.23074
JVASP-1867,FeAgO2,166,R-3m,trigonal,3D,0.0572,0.0739,-4.252041133,-4.008098967,17.35542843,16.89181403,759365.22,758836.41,0.000739538,0.000703793,4.29E-06,4.29E-06,na,na
JVASP-1256,PbF2,225,Fm-3m,cubic,3D,4.5818,5.7329,-283.21774,523.53128,3030.854974,1572.939068,37785.41967,5738.8732,1.309000367,0.913604156,0.756876054,0.756876054,-260.0001,521.3135
JVASP-4005,Na3ClO,221,Pm-3m,cubic,3D,2.2609,4.7035,-97.978263,511.7795,648.0046556,919.3548985,67502.313,3510.0833,0.209223714,0.538122566,0.376747361,0.376747361,-97.937841,514.83406
JVASP-2922,K3AuO,221,Pm-3m,cubic,3D,0.2386,1.7865,-196.38704,454.39661,2240.726147,2230.701996,58098.261,10803.672,0.788408705,1.195971002,0.32973457,0.32973457,-184.05325,461.38762
JVASP-3339,KAgSe,129,P4/nmm,tetragonal,3D,0.4708,2.0379,-63.99408067,304.6728233,400.0041632,2290.344812,97762.708,24825.62718,0.103299268,1.048814983,0.20930663,0.20930663,-57.92350167,309.0146067
JVASP-3693,Mg2FeH6,225,Fm-3m,cubic,3D,1.9345,1.6091,-280.20825,519.32682,3550.296002,1427.53587,45217.10233,5293.044267,1.402829711,0.828505243,0.534139889,0.534139889,-286.41565,555.90524
JVASP-2226,Pr2SO2,164,P-3m1,trigonal,3D,2.9751,4.4255,-207.1171233,309.3775067,1587.374818,1689.7596,37498.09267,16873.03513,0.66735413,0.837515609,0.718035788,0.718035788,-206.56861,311.6470433
JVASP-2220,Nd2SO2,164,P-3m1,trigonal,3D,2.9916,4.4644,-206.10606,306.1063533,1602.689526,1742.885809,38249.60233,17690.23203,0.670700814,0.854337129,0.72812771,0.72812771,-205.2946833,307.27143
JVASP-3057,RbCaSb,129,P4/nmm,tetragonal,3D,1.7505,2.3219,-239.1203733,409.6911833,2118.472973,1468.191892,37380.08167,10308.8969,0.881785547,0.797266382,0.604379968,0.604379968,-169.5597567,445.7102267
JVASP-2766,Ba(CdAs)2,164,P-3m1,trigonal,3D,0.0113,na,-105.6455247,199.4820467,689.2547169,2532.933317,166639.6508,64182.87567,0.138297947,0.769658639,0.004643991,0.004643991,-94.45334867,205.78048
JVASP-2166,KTe,194,P6_3/mmc,hexagonal,3D,0.2786,1.7462,-99.04548033,255.85365,661.8275781,1725.657479,62139.591,25420.88067,0.196608831,0.740922781,0.368691246,0.368691246,-115.41694,288.8015333
JVASP-1585,KTlO2,166,R-3m,trigonal,3D,0.9952,2.1529,-95.35503467,471.8929167,599.1409743,1836.274253,65436.594,8306.222,0.193015904,1.037288856,0.345469284,0.345469284,-88.10035667,471.21506
JVASP-3522,ZnCl2,122,I-42d,tetragonal,3D,3.94,6.2188,-117.61093,396.3916867,735.8119676,1367.185078,53314.33833,8741.241567,0.265300751,0.753553385,0.462406588,0.462406588,-124.59139,404.7327067
JVASP-2475,K2HgO2,139,I4/mmm,tetragonal,3D,2.2511,3.3782,-361.43853,400.32052,2187.362189,837.7385651,17500.843,4824.849067,1.132663565,0.478792168,1.954776214,1.954776214,-235.8254067,445.4726133
JVASP-3516,CaBr2,58,Pnnm,orthorhombic,3D,4.5495,5.8443,-230.94687,407.72928,1498.796921,1128.271116,28689.40433,6803.989267,0.602714532,0.63378066,1.154104805,1.154104805,-242.4175933,354.19837
JVASP-2916,BaCuSeF,129,P4/nmm,tetragonal,3D,1.5602,2.0718,-136.3151267,297.9217233,1238.025567,1810.145156,66577.491,21384.8408,0.386555651,0.868727514,0.622460339,0.622460339,-147.1835267,302.17407
JVASP-2481,Al2CdS4,82,I-4,tetragonal,3D,2.8639,4.1709,-83.93795,446.45532,550.6077235,773.1182722,77641.322,3885.664667,0.163824635,0.452364767,0.296194437,0.296194437,-78.23666467,438.7952067
JVASP-2880,Rb2HgF4,139,I4/mmm,tetragonal,3D,1.8059,4.0293,-155.9307933,286.05893,956.2926925,1539.105293,38109.42633,22369.40077,0.385684743,0.643436343,0.707851462,0.707851462,-152.6150967,370.8309367
JVASP-3432,Mn(GaS2)2,82,I-4,tetragonal,3D,1.0321,na,-176.65282,303.2060667,694.5160114,1236.123399,20019.44833,13380.40433,0.317194793,0.654320332,1.907394241,1.907394241,-187.41091,321.63321
JVASP-1615,KSmTe2,166,R-3m,trigonal,3D,1.2559,na,-244.67573,206.1834933,3026.173572,1862.543733,49341.91367,41339.213,1.131929317,0.717358278,0.578163076,0.578163076,-240.4239367,195.10117
JVASP-2169,GeS,62,Pnma,orthorhombic,2D,1.3199,na,-264.7972133,311.75185,4506.740614,2488.59807,74144.58467,25965.49533,1.378507233,1.164780009,0.90167376,0.90167376,-274.1607167,294.6141
JVASP-1939,HgCl,139,I4/mmm,tetragonal,0D,2.2532,3.2489,-214.47229,325.73358,1814.153144,2373.745617,41067.939,21604.519,0.707308326,1.131415387,0.838850088,0.838850088,-236.2176033,363.1982767
JVASP-2265,CdGeP2,122,I-42d,tetragonal,3D,0.54,1.6455,-95.010722,223.2991533,1159.496922,2322.757891,128513.0067,46707.26733,0.188839879,0.8290055,0.077188837,0.077188837,-108.9671103,219.8138433
JVASP-2865,Ca4As2O,139,I4/mmm,tetragonal,3D,1.2366,1.795,-112.7545567,249.8667867,867.6271364,2001.442112,64714.05167,31282.36133,0.266898904,0.885238216,0.665016526,0.665016526,-105.2971433,248.17484
JVASP-1891,LuNiSb,216,F-43m,cubic,3D,0.0876,0.0491,-254.0627,170.73773,3282.499389,2181.962387,50853.73267,74849.388,0.891244701,0.561105107,0.002121173,0.002121173,-254.53497,185.42321
JVASP-4122,YAgO2,194,P6_3/mmc,hexagonal,3D,2.6985,3.3056,-144.0146167,450.26954,1039.205928,2274.620279,54358.22833,11307.79957,0.354955112,1.252086528,0.84769779,0.84769779,-148.47082,471.92913
JVASP-1672,RbTmS2,166,R-3m,trigonal,3D,2.3734,3.6581,-265.4735033,274.2738533,3327.010018,1710.273048,46770.68433,22594.0409,1.33412381,0.805429926,0.627573493,0.627573493,-237.5773133,272.0652333
JVASP-2772,BaSnF6,148,R-3,trigonal,3D,5.2211,7.4181,-159.6257967,553.47446,853.0619616,287.1700878,33474.10467,928.0765167,0.366427735,0.171384494,0.722406206,0.722406206,-153.28489,418.9071333
JVASP-3801,RbBiF6,148,R-3,trigonal,3D,2.5236,3.3049,-231.1044567,543.57696,778.0007057,224.7256398,14564.51067,762.56647,0.410329735,0.134380108,1.410966336,1.410966336,-234.19427,476.5704933
JVASP-1858,NaCoO2,166,R-3m,trigonal,3D,0.8756,0.0196,-382.1436267,449.4651833,2527.141951,899.4148771,17278.133,4365.0235,1.29492501,0.52306182,1.349193092,1.349193092,-377.96844,457.4220333
JVASP-2952,Ba2HfS4,139,I4/mmm,tetragonal,3D,0.9121,1.4278,-112.042444,334.9488133,1279.999358,2121.058009,86851.96633,19829.70767,0.324765123,1.045827696,5.738604273,5.738604273,-95.43149933,328.1831433
JVASP-1717,TbRbSe2,166,R-3m,trigonal,3D,1.914,2.9602,-241.6024533,245.89702,2820.517005,1744.381494,47706.48533,28388.55733,1.071961336,0.768605128,0.574813604,0.574813604,-240.1444833,237.8425367
JVASP-3021,K2ZnF4,139,I4/mmm,tetragonal,3D,4.5396,7.1535,-147.4746533,337.2868733,962.7123167,1100.782432,44420.38567,10541.92053,0.376289907,0.564695033,0.665062302,0.665062302,-131.6688733,411.08587
JVASP-1924,InBr,63,Cmcm,orthorhombic,1D,1.5558,1.6433,-137.6264533,180.2028133,1811.266637,2202.969204,100756.4037,64001.311,0.457193503,0.64768869,0.309268817,0.309268817,-125.26392,176.1957633
JVASP-3969,K3IO,221,Pm-3m,cubic,3D,1.2401,2.7787,-100.52738,428.69136,642.4013153,1997.919992,63567.875,10871.479,0.211156117,1.086125746,0.366447635,0.366447635,-93.305867,438.95481
JVASP-2967,SmOF,166,R-3m,trigonal,3D,4.6903,6.4225,-311.3216867,401.8171667,2083.07398,1355.218745,21943.0509,9720.434067,0.987575312,0.739161599,12.39094258,12.39094258,-330.4140533,441.8945467
JVASP-2388,BaCeN2,194,P6_3/mmc,hexagonal,3D,0.7149,1.1059,-207.4840767,261.5864467,2073.689025,1437.973712,48891.56267,21635.04667,0.799472399,0.668519889,0.45697104,0.45697104,-249.9308567,262.4758267
JVASP-3579,PbBrF,129,P4/nmm,tetragonal,3D,2.945,4.142,-99.47680867,296.5313267,672.2522369,1648.218999,67482.62667,17403.48427,0.212663464,0.794142559,0.368025496,0.368025496,-112.13377,318.12058
JVASP-3501,Na2PtO2,71,Immm,orthorhombic,3D,1.6517,2.2863,-373.77994,393.2086267,1985.640297,2464.858303,14007.79253,14396.9666,0.957958898,1.097465273,3.112498172,3.112498172,-269.055,415.6733167
JVASP-1480,GaCuO2,166,R-3m,trigonal,3D,1.01,1.1719,-120.43282,436.90292,789.1473115,2913.239935,54066.886,14699.9717,0.279497045,1.527954271,0.497545132,0.497545132,-111.28071,442.6437667
JVASP-2235,KSnAs,186,P6_3mc,hexagonal,3D,0.3247,1.3386,-135.4199933,169.8318667,2164.701873,1682.162216,111061.1713,60801.14067,0.398517184,0.565131231,0.131903463,0.131903463,-140.9479667,181.3942233
JVASP-1933,CdCl2,166,R-3m,trigonal,2D,3.3424,5.5752,-102.2424267,455.1246167,657.1112552,2864.278891,62818.952,13966.518,0.219637019,1.543783122,0.388941993,0.388941993,-114.2393867,504.0284067
JVASP-1201,CuCl,216,F-43m,cubic,3D,0.4512,1.5812,-83.08125767,391.96037,544.9756325,2213.689179,78953.42233,14408.94967,0.160200109,1.150686986,0.283579274,0.283579274,-78.208819,384.48694
JVASP-1771,TmAgTe2,164,P-3m1,trigonal,3D,0.7009,1.2571,-297.30935,224.9020867,4558.535666,3800.909634,50506.10233,76054.963,1.717148561,1.104837016,0.797798626,0.797798626,-285.3549733,232.1542233
JVASP-1774,MgSe,216,F-43m,cubic,3D,2.782,4.2799,-62.41284633,399.47384,415.8125514,2918.226648,106745.51,18286.99433,0.101842111,1.446367877,0.224379178,0.224379178,-59.206716,381.47782
JVASP-2715,KRuF6,166,R-3m,trigonal,3D,1.1044,2.958,-409.5181567,399.2888533,240.5278387,395.3424101,1433.863967,2497.874167,0.143514232,0.23446214,8.534521176,8.534521176,na,na
JVASP-2868,RbNaS,129,P4/nmm,tetragonal,3D,2.5436,4.5734,-88.81627,358.6216867,626.3805246,960.640162,79263.61833,6890.915333,0.184512367,0.527970803,0.358445978,0.358445978,-80.12640233,369.9012467
JVASP-1540,Al2Os,139,I4/mmm,tetragonal,3D,0.0048,0.4122,-323.3411733,168.02769,3698.302324,2797.762785,35424.036,100817.382,1.318962809,0.681371922,0.019216411,0.019216411,-317.11626,161.5877333
JVASP-2502,InF3,167,R-3c,trigonal,3D,4.1826,7.1247,-147.1671667,530.8774433,1012.972921,320.5200898,46967.56033,1137.563167,0.388629803,0.190812802,0.687799527,0.687799527,-124.31576,519.50967
JVASP-3207,CuBS2,122,I-42d,tetragonal,3D,1.8718,2.2021,-130.3844133,373.1930133,1049.951197,2378.591592,63520.92233,16921.761,0.33473145,1.217150616,0.549447275,0.549447275,-160.93597,351.5275967
JVASP-1696,BaLiAs,187,P-6m2,hexagonal,2D,0.1672,1.3701,-195.4828833,225.3757033,1854.516118,2295.81238,63424.942,61803.56133,0.506979191,0.760212112,0.397330786,0.397330786,-160.9533967,231.9977933
JVASP-1702,ZnS,216,F-43m,cubic,3D,2.0865,3.5923,-57.80254367,304.11739,363.4838003,2929.307563,108790.5467,31672.50867,0.087304118,1.267848789,0.189876506,0.189876506,-55.492837,300.14757
JVASP-1429,NaNO2,44,Imm2,orthorhombic,3D,2.4137,3.8959,-394.73707,521.9834033,1069.970752,518.6714845,6086.239533,1961.599933,0.58930744,0.30787264,4.554758773,4.554758773,-400.81572,521.3612867
JVASP-1300,MgS,225,Fm-3m,cubic,3D,2.9453,4.2555,-151.04167,369.20604,1797.866286,3100.288379,78806.825,22743.877,0.548699521,1.457172528,0.29323719,0.29323719,-164.55686,352.97652
JVASP-2529,NaMgSb,129,P4/nmm,tetragonal,3D,1.1722,1.7263,-209.3290533,284.9325467,1785.235332,4134.931803,42025.70333,46935.50667,0.652362716,1.582341517,0.751186913,0.751186913,-229.5063267,278.55552
JVASP-2997,Sr(MgSb)2,164,P-3m1,trigonal,3D,1.0684,1.4354,-213.0271833,222.5075767,3656.437693,2260.202398,79858.176,45659.064,1.048453246,0.881048189,0.603845465,0.603845465,na,na
JVASP-2032,Ba2PCl,166,R-3m,trigonal,3D,1.0632,1.8389,-225.73927,427.3242633,2931.559958,888.9836845,57479.81333,4732.5456,1.086164197,0.515717976,0.523439299,0.523439299,-215.52879,438.1036333
JVASP-2574,RbCuO2,63,Cmcm,orthorhombic,2D,0.9307,na,-361.5876133,403.3926933,1710.849902,1259.559558,10052.9032,7286.2987,0.841460847,0.664608275,6.446805127,6.446805127,-352.8763433,396.02129
JVASP-2397,AlCuS2,122,I-42d,tetragonal,3D,1.8966,2.4907,-95.30099567,338.48586,760.1688891,1316.298521,83883.243,11854.96033,0.194888247,0.680996503,0.257374814,0.257374814,-82.75144667,341.7021667
JVASP-2745,CaPtF6,148,R-3,trigonal,3D,2.6963,2.783,-446.0011267,537.2314667,346.1479692,222.7421921,1739.880867,767.7149733,0.206795266,0.133243759,7.931119518,7.931119518,-476.5894067,504.13247
JVASP-2790,Si3NiP4,121,I-42m,tetragonal,3D,0.0875,0.7445,-239.7340267,286.2506033,2860.890735,4195.507678,49317.232,50838.56633,0.956276178,1.557935839,0.120588112,0.120588112,-255.1527033,267.7420367
JVASP-1534,CrAuS2,166,R-3m,trigonal,3D,0.0172,0.0012,-272.3053367,298.1455033,3135.60769,2120.551061,52721.72167,23760.677,1.095020624,0.985407419,0.616636691,0.616636691,-286.89535,324.3519833
JVASP-3117,NaPN2,122,I-42d,tetragonal,3D,4.8658,6.4713,-192.04247,454.3051,1033.477102,1815.384476,27723.14433,8811.944833,0.453845941,1.034782355,1.031051994,1.031051994,-200.7152967,464.76902
JVASP-3912,AcBr3,176,P6_3/m,hexagonal,3D,4.186,5.1503,-170.3438367,375.4777367,889.5153324,876.9550632,30854.82867,6227.3226,0.392663679,0.50321936,0.794758308,0.794758308,-193.0787633,392.0986567
JVASP-1079,Mg2Ge,225,Fm-3m,cubic,3D,0.1317,0.5764,-173.40012,262.79006,2493.188568,5058.366943,82919.436,73247.442,0.687200732,1.688681135,0.024467494,0.024467494,-166.7634,227.17854
JVASP-1162,Tl4Te3Pb,140,I4/mcm,tetragonal,3D,0.0614,na,-155.9706,151.0491267,1901.420656,1582.172117,80296.00267,67293.45733,0.504649723,0.444735849,0.003844603,0.003844603,-135.9558367,145.3695867
JVASP-1140,LaAlO3,167,R-3c,trigonal,3D,3.8947,na,-221.80423,423.5770367,1564.840273,2565.142988,31803.11167,14236.15333,0.697384495,1.363704674,0.804954237,0.804954237,-263.2305433,435.9097133
JVASP-1130,LiF,225,Fm-3m,cubic,3D,9.4789,11.2193,-189.58395,534.13453,1034.581988,2411.15337,28784.70467,8451.300167,0.464187217,1.338824315,0.948476897,0.948476897,-180.64905,538.38654
JVASP-1072,SiGe,186,P6_3mc,hexagonal,3D,0.0415,na,-298.3613367,149.9828833,7962.939191,1392.046188,87936.62033,62180.835,2.267730482,0.467926184,0.301183106,0.301183106,na,na
JVASP-1150,MgB2,191,P6/mmm,hexagonal,3D,0.0127,na,5.8085688,5.7443609,382.4021079,375.039474,10062558.17,10094881.87,0.001509304,0.001474591,2.79E-07,2.79E-07,5.92912,5.8837843
JVASP-1073,SiGe,186,P6_3mc,hexagonal,3D,0.0501,1.0966,-289.4396067,151.5613567,7386.984547,1401.187882,87268.23867,61286.67133,2.060351532,0.47640437,0.312271853,0.312271853,na,na
JVASP-1104,TePb,225,Fm-3m,cubic,3D,0.1849,na,-156.48469,251.56829,3120.001575,9268.948084,127412.2267,146459.8733,0.573127379,1.583107661,0.133263343,0.133263343,-162.43683,308.06319
JVASP-1076,Mg2Si,225,Fm-3m,cubic,3D,0.1116,0.6247,-237.49589,268.95909,4495.640516,5089.972875,79703.86467,70362.784,1.353016334,1.724993381,0.05444097,0.05444097,-202.76315,240.78946
JVASP-1078,Mg2Ge,225,Fm-3m,cubic,3D,0.1283,na,-165.39674,242.16997,2372.84115,4823.866141,86739.07267,82253.554,0.55989547,1.237422389,0.001807379,0.001807379,-166.7634,227.17854
JVASP-1082,Mg2Sn,225,Fm-3m,cubic,3D,0.0866,0.0849,-75.02387667,109.76799,878.063681,1917.927532,156000.8667,159177.1667,0.08923978,0.183479883,5.36E-05,5.36E-05,-5.9561835,43.358662
JVASP-1086,LaTe,225,Fm-3m,cubic,3D,0.0071,na,-3.561496367,-3.741049967,65.68017287,72.32684942,5178086.2,5167881.3,0.000523254,0.00057836,5.42E-07,5.42E-07,na,na
JVASP-1097,CuS,194,P6_3/mmc,hexagonal,3D,0.0013,na,19.016316,18.748355,671.2664606,644.906757,2130195.183,2159532.767,0.013608612,0.013227791,4.08E-06,4.08E-06,17.99363033,17.72127833
JVASP-1090,ZrNiSn,216,F-43m,cubic,3D,0.1819,na,-250.85811,329.88963,2855.945091,2593.578717,45383.03767,23832.08867,1.139091546,1.213531961,0.418731365,0.418731365,na,na
JVASP-1091,ZrNiSn,216,F-43m,cubic,3D,0.1895,0.5014,-251.3485,322.62983,2877.444969,2515.762799,45546.43933,24169.10967,1.145205805,1.168736672,0.36650625,0.36650625,na,na
JVASP-1109,SnS,62,Pnma,orthorhombic,2D,1.0176,na,-185.9081733,262.5251333,3743.534926,2620.929612,102370.2993,40810.18767,0.880604498,1.026331668,0.28747137,0.28747137,-160.46645,277.8120933
JVASP-1067,Bi2Se3,166,R-3m,trigonal,2D,0.0581,na,-76.35001133,212.1863467,693.0964959,2506.178057,93006.81533,58166.69767,0.149295211,0.78241296,0.152977022,0.152977022,-63.53643533,254.25059
JVASP-1065,Tl4Te3Pb,140,I4/mcm,tetragonal,3D,0.2923,na,-153.90734,163.76301,1999.019948,1558.468894,86473.356,56996.146,0.468471108,0.475463124,0.051786899,0.051786899,-135.9558367,145.3695867
JVASP-1121,SrSe,225,Fm-3m,cubic,3D,2.2398,3.1237,-186.68543,263.59275,2455.54112,2154.846436,70457.35933,31013.40167,0.812058521,0.943764736,0.352571285,0.352571285,-198.0982,267.831