JID,Composition,Spg.numb.,Spg.symb.,Cryst.,Dimensionality,OPT SCF gap, MBJ gap,n-Seebeck,p-Seebeck,n-powerfact,p-powerfact,n-cond,p-cond,n-ZT,p-ZT,Avg.elec.mass,Avg.hole mass,n-mp-Seeb,p-mp-Seeb
JVASP-5461,AlSbI6,12,C2/m,monoclinic,0D,1.9355,2.6311,-209.39514,386.3482667,800.7210117,403.1641535,17588.56967,2992.788167,0.408013017,0.237033491,1.617516495,1.617516495,-237.83395,387.0253967
JVASP-55,MoS2,194,P6_3/mmc,hexagonal,2D,0.7207,na,-247.6167933,140.0650633,3617.294235,814.542843,59879.47,41222.66233,1.275423374,0.319273918,0.496554106,0.496554106,-358.47931,199.1690067
JVASP-53,MoS2,194,P6_3/mmc,hexagonal,2D,1.4398,na,-341.9274467,241.7136133,2860.18158,1278.00623,34304.01973,22470.717,1.174632756,0.579463764,26.05606531,26.05606531,-358.47931,199.1690067
JVASP-54,MoS2,194,P6_3/mmc,hexagonal,2D,0.9224,1.3371,-318.26313,151.88275,4211.87092,858.1241337,41844.961,37267.36933,1.774100465,0.346628392,0.588375316,0.588375316,-358.47931,199.1690067
JVASP-5470,AuSCl5,14,P2_1/c,monoclinic,0D,1.7358,2.3915,-335.4494167,393.56627,355.0388408,176.0250887,3368.082033,1196.559367,0.209393978,0.104924843,9.194295755,9.194295755,-348.7960467,419.33546
JVASP-5473,ZrFeCl6,163,P-31c,trigonal,2D,0.8889,1.0576,-28.514422,-32.67075933,14.4644293,18.71840875,14079.68045,13914.51992,0.008240568,0.010676402,0.004317088,0.004317088,-407.36682,437.8399533
JVASP-5476,HfFeCl6,163,P-31c,trigonal,2D,0.9644,0.7806,-41.03969333,-45.636293,21.28110729,26.1331763,15709.38763,15519.0117,0.012418306,0.015244084,0.000148489,0.000148489,-433.19195,479.6674967
JVASP-5482,CSO,160,R3m,trigonal,3D,4.6419,5.3711,-503.2076933,442.6669933,1724.485863,1223.86877,6863.005233,6234.283733,0.964618261,0.696745516,5.907166419,5.907166419,-464.0607933,493.84476
JVASP-5485,CdI2,186,P6_3mc,hexagonal,2D,2.1187,3.3625,-196.6054867,426.20829,2131.36138,1430.262088,54775.096,8079.235967,0.761064189,0.801067052,0.428931642,0.428931642,-249.51472,407.21954
JVASP-5491,V2Se9,15,C2/c,monoclinic,1D,0.0139,0.7394,-277.8766867,327.8370967,1557.16115,321.2843976,20962.7578,2710.485333,0.614865661,0.185127799,0.923002832,0.923002832,-321.7558933,347.52341
JVASP-5500,OsBr4,61,Pbca,orthorhombic,1D,0.0068,na,31.7534656,34.30716367,156.0125825,157.3786433,26402.513,27129.58733,0.064029099,0.064507213,0.000161971,0.000161971,32.628761,35.62087867
JVASP-5503,TeAuCl7,2,P-1,triclinic,0D,1.4665,2.126,-280.3320133,331.2432267,1319.030484,642.9014456,14893.81767,6626.222801,0.613706128,0.358024319,12.21238301,12.21238301,-284.6851567,402.43543
JVASP-5506,AuSeCl7,14,P2_1/c,monoclinic,0D,1.6648,2.3819,-374.3596933,367.6105867,84.7616787,108.4071028,479.5114967,791.39828,0.050707469,0.064712766,59.85449547,59.85449547,-351.1258067,381.25826
JVASP-5509,GaBr2,52,Pnna,orthorhombic,3D,2.7016,3.2189,-156.3190933,376.7008367,812.9205334,322.9458814,31831.22567,2281.140467,0.346141165,0.191480628,0.601784125,0.601784125,na,na
JVASP-5512,CS3N4,14,P2_1/c,monoclinic,0D,1.6085,na,-370.6878967,342.65641,1200.537889,579.1411326,7979.923557,4331.499347,0.618133375,0.325375988,60.93974564,60.93974564,-396.26049,412.9041767
JVASP-5518,P3Se4I,14,P2_1/c,monoclinic,0D,1.2191,na,-284.8991767,264.5766233,614.8406763,795.2242893,7381.364067,9801.1668,0.355325455,0.437519402,3.00191952,3.00191952,-297.2967567,294.7239867
JVASP-5521,S(ClO)2,43,Fdd2,orthorhombic,0D,3.6863,na,-316.2240033,463.38138,1141.549208,197.3726517,11181.89833,918.30745,0.632935799,0.117777083,1.760933489,1.760933489,-287.4866967,486.87894
JVASP-5524,SCl2O,14,P2_1/c,monoclinic,0D,3.435,4.8043,-410.62837,440.1233633,508.285933,193.6035737,3211.654613,996.6284067,0.30033846,0.115691604,13.37428327,13.37428327,-381.1538867,455.8825833
JVASP-4406,ScSi2,191,P6/mmm,hexagonal,3D,0.0072,0.0085,-8.726551267,-9.020364133,632.4957931,670.6477103,8510447.067,8485232.833,0.003897583,0.004131519,3.46E-07,3.46E-07,na,na
JVASP-5533,Sc2NCl2,164,P-3m1,trigonal,2D,0.0096,na,-14.02735703,-14.45344703,71.39010693,90.56710248,2140109.432,2129252.511,0.007118439,0.007050059,1.79E-05,1.79E-05,na,na
JVASP-5536,Cu2SO4,70,Fddd,orthorhombic,2D,1.5457,1.6322,-192.9112033,410.2559233,1102.551679,1056.876864,29272.37,6115.252567,0.478474468,0.602965344,1.05133303,1.05133303,na,na
JVASP-5539,Sm4Cl6O,186,P6_3mc,hexagonal,3D,0.1029,0.0628,13.31101,15.89150467,1103.8688,1097.546669,104770.323,99912.87133,0.168964879,0.175648494,5.32E-05,5.32E-05,5.818853333,9.224626333
JVASP-113,ZrO2,14,P2_1/c,monoclinic,3D,3.6218,4.2132,-297.4326267,364.7270067,1427.564094,1358.411815,17303.31623,10967.71723,0.70818834,0.720360175,2.437247753,2.437247753,-326.57654,380.02284
JVASP-5557,Ta(NiTe)2,62,Pnma,orthorhombic,2D,0.0004,na,26.95821667,26.07153067,1093.040598,1038.060898,1419821.653,1437565.498,0.02833247,0.026599663,1.67E-05,1.67E-05,25.52322177,24.70502647
JVASP-5560,Ta(ICl)2,71,Immm,orthorhombic,1D,1.0496,1.5306,-325.7892933,344.9624,920.105262,534.6437825,8927.412133,4361.556267,0.514380115,0.311546864,2.801926273,2.801926273,-348.8661667,328.44671
JVASP-5566,Al3Te3I,62,Pnma,orthorhombic,2D,1.9558,2.5631,-209.37895,315.2265,1931.289367,703.4539509,53125.57567,6702.165133,0.543605908,0.3880501,1.646295429,1.646295429,-149.86187,341.0504833
JVASP-5575,Nb2Te6I,14,P2_1/c,monoclinic,2D,0.0294,na,-218.5410267,298.0036067,517.104765,688.8006904,10812.3353,8431.065833,0.282668838,0.392876117,0.889429436,0.889429436,-306.9889633,295.00001
JVASP-5578,NdI2,139,I4/mmm,tetragonal,2D,0.0073,0.016,6.730231167,6.680050933,44.33945365,55.89665202,1423707.05,1416592.937,0.006154113,0.006959257,1.22E-05,1.22E-05,7.387816067,7.2818372
JVASP-5581,Nb3GeTe6,62,Pnma,orthorhombic,2D,0.0098,na,-17.37010167,-20.374462,125.95379,134.4382042,209673.7133,207507.66,0.025417055,0.027987622,1.55E-05,1.55E-05,-16.88364367,-18.65679333
JVASP-5587,U3(SiC)2,139,I4/mmm,tetragonal,2D,0.003,0.0033,-5.2787411,-5.0960265,27.25753711,26.65268934,687770.6767,687054.3867,0.001305891,0.001273553,4.39E-06,4.39E-06,8.998778067,8.979887067
JVASP-5590,P2Se5,14,P2_1/c,monoclinic,0D,1.0489,1.719,-323.7472533,312.17924,594.7176774,668.2341426,7289.020477,6840.343692,0.314647917,0.359731111,3978.847247,3978.847247,-367.01485,365.67396
JVASP-5593,Te2OsCl12,2,P-1,triclinic,2D,0.0292,2.1228,-15.68131,-20.9955497,23.23381391,24.32903817,54446.7463,54443.52,0.008810896,0.009546385,0.000144405,0.000144405,-3.303159367,-11.3774313
JVASP-5596,PSe,14,P2_1/c,monoclinic,1D,1.9713,2.6807,-330.1421133,352.0405967,711.5696054,447.4448892,6996.225933,3527.772067,0.400489985,0.263782014,4.432069624,4.432069624,-341.2867767,334.4436467
JVASP-5599,Hf3Te2,139,I4/mmm,tetragonal,2D,0.0004,0.0001,-7.085528133,-5.110880333,387.6831954,361.6552137,1809822.877,1791071.663,0.006286195,0.006626144,4.05E-06,4.05E-06,-10.58818511,-8.5628723
JVASP-5602,Nb3TeCl7,164,P-3m1,trigonal,2D,0.6979,0.8863,-381.7348667,351.8134467,453.5303472,306.7012673,3093.599433,2426.586167,0.268490005,0.181875912,6.628726623,6.628726623,-377.7966833,359.60645
JVASP-5611,SrThBr6,51,Pmma,orthorhombic,3D,2.7505,2.4985,-336.7986067,335.92552,116.1026524,585.5133882,1021.476373,5318.567147,0.069463222,0.332455064,11.38366652,11.38366652,-369.6689533,312.08062
JVASP-5632,Ta3TeI7,186,P6_3mc,hexagonal,2D,0.0318,0.8086,-234.59493,389.0034967,1183.747633,182.7767661,20168.51357,1294.498097,0.548665452,0.105280377,1.267170289,1.267170289,-280.9240467,373.3799233
JVASP-5644,GeAsSe,52,Pnna,orthorhombic,2D,1.3202,2.0926,-230.4057433,356.87086,2959.880759,1107.822946,55914.86433,8668.4875,1.145248754,0.633652549,0.445095006,0.445095006,-247.6230733,359.09377
JVASP-4409,FePSe3,148,R-3,trigonal,2D,0.0031,0.0055,83.70839333,81.84411967,915.35215,893.2051842,196073.3793,201003.373,0.18200896,0.177392655,3.84E-05,3.84E-05,-222.2180533,-221.44701
JVASP-5653,AlTeI7,7,Pc,monoclinic,0D,1.7737,na,-344.1286767,313.4001133,245.5193815,572.8519984,2026.975867,5709.836133,0.146123074,0.331915863,8.731998295,8.731998295,-320.8853167,296.2887067
JVASP-5656,AlSeBr7,7,Pc,monoclinic,0D,2.1346,3.1223,-346.6570067,343.0853667,202.7175967,346.9732755,1643.211233,2967.155733,0.12110567,0.204380055,11.04815583,11.04815583,-339.1899633,385.55982
JVASP-5659,HfCl4,13,P2/c,monoclinic,1D,3.9122,5.0029,-385.6942867,410.3623867,656.7856283,940.0460167,4382.572867,6501.125167,0.382797085,0.535789529,4.180187843,4.180187843,-409.27297,440.8673267
JVASP-5662,Ta(TeBr3)2,2,P-1,triclinic,0D,0.8168,1.0206,-251.0894233,265.11001,387.5384185,369.7800665,4917.959943,5352.564567,0.223097236,0.214852872,18.86977497,18.86977497,-277.10005,351.87539
JVASP-5665,Ta(TeCl3)2,2,P-1,triclinic,0D,0.8035,0.9027,-196.2714067,281.4552867,776.0492295,987.2485656,14790.21003,12881.74075,0.382774897,0.454663702,64.26457138,64.26457138,-271.96835,280.1952733
JVASP-5668,TaCl4,12,C2/m,monoclinic,1D,1.1012,1.6945,-316.88929,377.5045367,826.9797475,18.30869812,8331.844167,129.0699687,0.462485975,0.010985014,3.541855763,3.541855763,-341.0193767,362.86748
JVASP-5671,PdCl2,148,R-3,trigonal,3D,1.0919,0.8393,-327.0393767,418.60008,651.0751937,248.9096555,5572.719133,1430.4835,0.369782634,0.148129845,2.517614832,2.517614832,na,na
JVASP-5677,Al2Te3,14,P2_1/c,monoclinic,2D,1.7756,2.2727,-325.6831567,309.2705267,1254.54253,1306.29896,13153.00867,13549.24453,0.658694596,0.618262966,4.377175676,4.377175676,-313.8327733,294.8190033
JVASP-5680,Hg2TeO3,28,Pma2,orthorhombic,2D,2.0405,na,-235.2363367,202.6767,1314.555486,783.1589706,21568.996,19628.32183,0.582932584,0.388540042,0.926580695,0.926580695,-179.69263,252.1294533
JVASP-5683,GaTeI7,7,Pc,monoclinic,0D,1.5562,2.2971,-302.17958,274.32817,817.5184914,541.5493039,9186.406833,7224.2307,0.465018553,0.310009356,6.418268318,6.418268318,-328.0034967,290.5870733
JVASP-5686,CuSe2Br,14,P2_1/c,monoclinic,2D,0.0378,0.792,-255.79485,363.9248633,1119.721982,928.5053692,17480.09443,7256.9742,0.541478768,0.531365043,1.908392685,1.908392685,-290.87395,329.9128067
JVASP-5701,CuAsSe2,160,R3m,trigonal,3D,0.0588,0.8358,-332.70105,212.5546,5095.38909,3838.021712,46233.70067,97665.19967,2.020657926,0.961173305,0.211563685,0.211563685,-315.4915367,171.9611633
JVASP-5704,FeAgTe2,164,P-3m1,trigonal,3D,0.0003,na,19.50679133,20.14156,203.3358413,217.9016207,535284.8867,538028.8733,0.012578837,0.013435004,5.67E-06,5.67E-06,na,na
JVASP-5707,Si3Ir,194,P6_3/mmc,hexagonal,2D,0.0014,0.0064,0.664957033,0.4043199,459.4000236,467.4284502,6850049.733,6847268.833,0.002711939,0.002740946,4.11E-07,4.11E-07,-3.726943433,-3.936449
JVASP-5710,TmI2,164,P-3m1,trigonal,2D,0.0015,0.006,-34.200694,-35.41112533,890.72488,926.1569934,2494871.38,2462788.287,0.074279465,0.075285861,4.63E-06,4.63E-06,na,na
JVASP-5713,Nb3TeI7,186,P6_3mc,hexagonal,2D,0.0478,0.652,-245.0404167,364.44579,991.8494605,164.6946461,15989.64473,1304.22213,0.495356976,0.094413614,0.942870348,0.942870348,-286.6034867,345.5574
JVASP-5716,NbTeCl9,2,P-1,triclinic,0D,1.9892,2.4985,-310.15142,340.7526933,147.9007339,253.2539578,1536.359533,2235.036933,0.088149739,0.150530876,4.840194059,4.840194059,-352.34188,353.2676
JVASP-4412,CuAgTe2,25,Pmm2,orthorhombic,2D,0.0017,0.0009,14.7917967,14.22511633,773.4731577,758.6695456,5199807.38,5187146.16,0.021322755,0.020164022,2.18E-06,2.18E-06,20.50302397,21.43003133
JVASP-5722,SiH,164,P-3m1,trigonal,2D,2.0495,2.9479,-280.8983,243.5561367,7322.177043,3420.181043,86498.27367,46594.641,1.926511347,1.238311076,0.716036613,0.716036613,-304.2772033,227.8841267
JVASP-5734,SnCl4,14,P2_1/c,monoclinic,0D,3.0069,5.0572,-181.64628,423.6356467,618.4585791,191.2646079,19053.16567,1068.667193,0.322267844,0.114224313,0.963851009,0.963851009,-255.19151,457.75281
JVASP-5737,Ir(Cl2F3)2,14,P2_1/c,monoclinic,0D,2.2474,na,68.30001867,75.14118867,125.0148399,146.3312689,16918.2332,17679.64107,0.049938577,0.057599909,0.00054939,0.00054939,63.67810733,62.93610467
JVASP-5740,Na3Li3N2,6,Pm,monoclinic,3D,0.7868,na,-61.29865233,13.53903005,370.0995696,115.5777296,102956.7363,22889.15567,0.09720337,0.032517984,0.000297305,0.000297305,-48.32856967,1.987491
JVASP-521,Sc2C,164,P-3m1,trigonal,2D,0.0133,na,-17.979241,-17.52263683,515.9684736,498.0138825,1257496.36,1250661.86,0.012738996,0.012227536,2.72E-06,2.72E-06,-20.435153,-20.220531
JVASP-5743,Nb3Cl8,164,P-3m1,trigonal,2D,0.5532,0.0347,-34.44528233,-41.44832333,83.46708142,119.3049234,75766.598,74221.31,0.038615619,0.055466579,3.16E-05,3.16E-05,6.129182667,110.2727567
JVASP-5749,DyBr2,61,Pbca,orthorhombic,3D,0.0156,na,-28.04366133,-28.880076,500.7279676,437.2459502,145978.2067,141119.45,0.091613503,0.079156576,2.23E-05,2.23E-05,-34.04047033,-29.57837567
JVASP-4198,CoBr2,164,P-3m1,trigonal,2D,0.7648,0.0053,1.203488333,1.518871,147.9785158,153.8373597,120492.4503,120435.479,0.034748978,0.03561302,3.07E-05,3.07E-05,-32.21572033,-21.02741767
JVASP-5752,TlSbO3,148,R-3,trigonal,2D,2.3977,2.5801,-280.9498267,260.35653,1561.672275,1440.095281,19995.079,21411.538,0.792625902,0.657542051,1.624365639,1.624365639,-179.9347567,304.5585467
JVASP-5758,CIN,160,R3m,trigonal,0D,4.3009,5.0715,-349.59237,469.2497233,3148.484333,2082.447404,23813.353,9391.931933,1.30329764,1.134437067,2.77332877,2.77332877,-345.0612667,467.2744733
JVASP-5764,TiCl4,14,P2_1/c,monoclinic,0D,3.1587,na,-436.6618133,412.2882733,97.672519,184.5633457,529.8011833,1090.200073,0.058523471,0.110112228,39.83490368,39.83490368,-452.0685467,470.09821
JVASP-5767,PdSCl,11,P2_1/m,monoclinic,3D,0.9183,0.8392,-336.05912,379.08691,659.5006352,466.3721958,5620.7124,3222.3735,0.3775774,0.275170647,6.759825905,6.759825905,-361.52766,382.1630733
JVASP-5770,AsCl5,59,Pmmn,orthorhombic,0D,1.0161,2.4399,-214.18562,391.29976,1721.759418,904.709111,29087.38113,5239.402567,0.701008274,0.516756956,1.329029488,1.329029488,-250.21949,423.1478467
JVASP-5779,HfBrN,166,R-3m,trigonal,2D,1.8649,na,-261.92112,219.8530267,2049.502714,1031.878794,28304.34273,23321.88833,0.885758045,0.493873478,28.91781243,28.91781243,-252.7640967,273.46261
JVASP-5782,TiAgHg2,123,P4/mmm,tetragonal,3D,0.0057,0.0004,-3.175131667,-3.2726555,44.3813506,47.76647199,3919370.233,3913617.233,0.000466041,0.000500941,7.20E-07,7.20E-07,na,na
JVASP-5785,Mn2Au,139,I4/mmm,tetragonal,3D,0.0119,0.0046,3.1365764,3.080663317,193.4592652,191.3890873,5491709.767,5491815.2,0.002817512,0.002775197,6.24E-07,6.24E-07,na,na
JVASP-5794,Ag3PSe4,31,Pmn2_1,orthorhombic,3D,0.2769,na,-60.28690533,319.08809,377.3435761,1763.150608,90521.167,18772.44003,0.090100592,0.835392161,0.100420172,0.100420172,-43.15717067,244.6639433
JVASP-4219,AlI3,14,P2_1/c,monoclinic,0D,3.017,3.759,-324.54412,362.75555,488.5874731,575.0539676,5049.004,4448.795933,0.286743352,0.337345904,5.978924436,5.978924436,-340.0463,407.4115
JVASP-5806,PAuS4,2,P-1,triclinic,1D,1.0366,1.451,-282.4042333,229.3418233,1183.379393,964.6323263,15631.46907,18144.19167,0.592822343,0.485443935,2.930684869,2.930684869,-325.4103967,284.96119
JVASP-5809,MgPSe3,148,R-3,trigonal,3D,2.0672,2.8524,-317.69956,334.8843067,3351.291667,1643.993992,35629.83367,19853.48007,1.314973741,0.824123546,15.83825639,15.83825639,-330.9359367,346.60446
JVASP-5812,Ga2PdBr8,12,C2/m,monoclinic,0D,1.3679,1.1355,-337.12367,439.2841467,292.5866244,261.2354265,2378.6033,1345.359467,0.174153802,0.155392565,36.94067159,36.94067159,-326.8087267,426.9524633
JVASP-5815,Ga2PdI8,12,C2/m,monoclinic,0D,0.9986,1.2201,-306.8685067,299.6926667,392.8277849,981.7313461,3665.935333,11938.80113,0.232355422,0.51378474,11.52032877,11.52032877,-309.28118,405.0456
JVASP-4237,GaBr3,14,P2_1/c,monoclinic,0D,2.9819,4.5019,-159.56849,398.1619067,473.9020319,469.0652816,17196.55433,3046.3245,0.239374363,0.277117916,0.592597766,0.592597766,-212.7634133,436.91307
JVASP-4249,GaI3,14,P2_1/c,monoclinic,0D,1.9711,2.9241,-322.0582567,366.5990633,470.7203962,620.3327198,4605.5968,4675.089133,0.277874595,0.363536073,5.073116217,5.073116217,-328.86933,401.7193867
JVASP-5818,GaPS4,14,P2_1/c,monoclinic,2D,2.0816,3.0756,-224.98526,271.37522,1247.684872,929.2714412,24447.32183,12682.95933,0.563760306,0.507377657,1.458897654,1.458897654,-237.46209,317.8182233
JVASP-5821,S(IO3)2,15,C2/c,monoclinic,2D,1.8502,3.4185,-257.3099467,282.0776633,1891.165588,1048.330466,25106.61407,13130.84267,0.773497017,0.573880712,3.303787403,3.303787403,-253.9326033,328.9403367
JVASP-5824,Ta3SBr7,8,Cm,monoclinic,2D,0.7897,1.1673,-347.8806767,385.9414833,685.035316,290.8106467,5696.8648,1947.6467,0.39668817,0.173681884,5.345816472,5.345816472,na,na
JVASP-5827,CuSe2Cl,14,P2_1/c,monoclinic,2D,0.1627,0.5032,-211.1225667,339.9241433,877.6495952,781.8982496,19114.10203,7246.628333,0.412728143,0.442844617,1.020505915,1.020505915,-286.86263,341.7072533
JVASP-5833,As8S9,13,P2/c,monoclinic,3D,1.5038,2.3072,-189.2457333,299.0112633,673.6276301,266.218696,18106.3642,3035.642367,0.340102382,0.157622562,1.098080707,1.098080707,-210.2280733,317.3507567
JVASP-4418,PPdSe,60,Pbcn,orthorhombic,2D,0.0487,0.5768,-319.7514733,330.2473033,2331.073678,2204.702237,21720.36453,22743.7597,1.090532076,1.098013741,1.59411219,1.59411219,-328.4046967,369.18537
JVASP-5845,NbI5,14,P2_1/c,monoclinic,1D,0.0129,na,-300.0167333,210.9480633,668.5797829,766.668323,8126.658167,16884.1813,0.37043084,0.344543788,3.142950212,3.142950212,-273.8393967,262.6719233
JVASP-5851,CrBrO,59,Pmmn,orthorhombic,2D,0.0185,0.0042,-229.00647,161.9937667,999.5504368,849.7456765,18330.8826,28485.02673,0.469661732,0.315637189,0.054670824,0.054670824,-225.3703933,188.9801233
JVASP-219,HfTe2,164,P-3m1,trigonal,2D,0.0058,0.0087,-7.138674333,3.400637667,681.9581242,415.0316346,676384.0533,652551.4567,0.030851842,0.029099128,8.67E-06,8.67E-06,-25.47638767,-18.59553093
JVASP-4423,ZnPS3,12,C2/m,monoclinic,2D,2.0666,3.2801,-101.8153807,278.76061,771.3955393,2114.642069,67684.14433,26688.1808,0.205262939,0.955431553,0.34301985,0.34301985,-103.2835343,273.2530633
JVASP-4426,CaSiO3,127,P4/mbm,tetragonal,3D,4.1227,5.3764,-121.5575867,356.54489,873.3371032,2346.287308,59105.864,18407.42533,0.303121577,1.163389284,0.523717798,0.523717798,-101.0284833,365.3998333
JVASP-89,Bi2Te3,166,R-3m,trigonal,2D,0.0724,na,-204.9886467,184.30566,5836.054397,4413.322997,145483.8643,140289.2457,0.936601063,0.815098955,0.014447668,0.014447668,-175.9461567,197.37376
JVASP-24,Bi2Te3,166,R-3m,trigonal,2D,0.0567,na,-162.2799333,261.8028667,1743.965486,2926.577214,87378.431,42848.61767,0.397426209,1.086110524,0.244574976,0.244574976,-175.9461567,197.37376
JVASP-25,Bi2Te3,166,R-3m,trigonal,2D,0.0866,na,-180.8213933,199.50527,3172.429998,2947.327688,107102.6663,78866.18333,0.629978127,0.792731983,0.152687033,0.152687033,-175.9461567,197.37376
JVASP-4435,NaAsO2,61,Pbca,orthorhombic,2D,3.3943,na,-247.24362,322.99311,1043.274926,490.8688819,15896.42747,4637.4542,0.514565574,0.28360024,1.518133362,1.518133362,-344.2334333,291.41805
JVASP-4301,P2O3,11,P2_1/m,monoclinic,0D,3.8195,na,-301.01656,397.8970767,1018.333873,381.9047949,11765.7906,2403.0725,0.547536703,0.22726033,4.14756869,4.14756869,-331.47446,422.67496
JVASP-4438,CrSiTe3,148,R-3,trigonal,2D,0.0343,0.0001,-248.95598,335.9327433,1813.446291,2024.860166,29164.111,18076.64033,0.848044117,1.010359566,0.5628407,0.5628407,-253.8781433,282.1770467
JVASP-4304,Rb2Te,62,Pnma,orthorhombic,3D,1.6098,2.5912,-73.25880167,169.51199,478.3920477,843.5677308,91542.50067,26407.38767,0.132696421,0.357578019,0.270429317,0.270429317,-70.68035367,193.8518333
JVASP-104,TiO2,141,I4_1/amd,tetragonal,3D,2.0233,2.4742,-173.6794367,403.4067167,1402.990029,2049.363177,42308.49867,12800.34433,0.502692821,1.081458892,1.740713956,1.740713956,-190.5231467,408.3057033
JVASP-4307,YbGa,221,Pm-3m,cubic,3D,0.0035,0.0012,-5.6791293,-6.218681167,314.771189,378.1269989,7629292.033,7601204.933,0.001773433,0.002149263,3.66E-07,3.66E-07,na,na
JVASP-278,Te2Pt,164,P-3m1,trigonal,2D,0.0102,0.0223,-26.143067,-25.620314,2310.212734,2206.598584,2983400.367,2921294.567,0.031332031,0.030626661,9.74E-07,9.74E-07,-25.30665967,-25.144395
JVASP-23,CdTe,216,F-43m,cubic,3D,0.8332,1.6399,-32.16305133,275.64252,166.509331,2981.656719,160962.27,39243.27267,0.030330942,1.201582783,0.091327772,0.091327772,-33.403585,272.35029