JID,Composition,Spg.numb.,Spg.symb.,Cryst.,Dimensionality,OPT SCF gap, MBJ gap,n-Seebeck,p-Seebeck,n-powerfact,p-powerfact,n-cond,p-cond,n-ZT,p-ZT,Avg.elec.mass,Avg.hole mass,n-mp-Seeb,p-mp-Seeb
JVASP-25890,K2PbO2,2,P-1,triclinic,3D,2.0555,na,-187.6378067,363.4547233,937.477766,346.5213993,26771.55067,2734.42648,0.427149618,0.204808875,1.052947703,1.052947703,-192.3346667,350.1559567
JVASP-25892,CoF2,136,P4_2/mnm,tetragonal,3D,0.027,0.0026,-18.87246933,-13.04155933,568.3696753,541.823892,88654.90767,87231.42733,0.09529834,0.092315309,9.67E-05,9.67E-05,-28.41087533,-9.779802667
JVASP-25896,BaNd2PtO5,127,P4/mbm,tetragonal,3D,2.4887,2.81,-306.15224,347.0502167,1796.270469,1128.880159,18972.797,9175.932533,0.890097172,0.599667484,0.710580029,0.710580029,-362.87541,413.29674
JVASP-25900,Na2Zr(CuS2)2,12,C2/m,monoclinic,3D,0.0214,0.0237,-61.00727867,25.29102667,752.1329343,1040.395721,57931.33533,49855.21067,0.200747806,0.289657297,0.000341942,0.000341942,-28.73295067,17.00140267
JVASP-25902,InSb2S4Cl,2,P-1,triclinic,2D,1.5426,na,-168.86792,354.92709,1413.933726,828.3490931,40879.56623,7311.156533,0.500656422,0.448957966,1.53044884,1.53044884,-176.4567533,337.8763767
JVASP-25903,K2NiF4,139,I4/mmm,tetragonal,3D,0.0709,0.0003,-200.67739,394.27894,816.9279754,815.3151099,14297.85427,6016.631633,0.381563782,0.403844507,276.2723243,276.2723243,35.84761,241.7545867
JVASP-25908,Na3Sb3(AsO7)2,14,P2_1/c,monoclinic,3D,1.7291,na,-75.21341867,362.2485867,443.6913607,402.7121821,80665.94333,3828.815583,0.131496524,0.23665045,0.316912821,0.316912821,-98.60731133,381.1249567
JVASP-25917,RbAlAs2O7,2,P-1,triclinic,3D,3.2687,4.792,-134.1015633,351.51396,816.6461398,409.7892648,45541.50333,3271.703667,0.315321964,0.241252097,0.565816526,0.565816526,-126.7279967,370.4553267
JVASP-25918,KZrSnF7,53,Pmna,orthorhombic,3D,4.1444,na,-347.1616133,320.0793533,296.4204538,545.7003625,2103.316697,3885.332303,0.173735651,0.314299487,33.63541452,33.63541452,-370.69851,329.5043033
JVASP-25946,Tl4V2O7,164,P-3m1,trigonal,3D,2.4642,2.2765,-332.5836367,335.1723667,1239.86693,1587.040689,11556.4677,14362.03913,0.679023064,0.860132661,3.425004644,3.425004644,-340.81064,226.04577
JVASP-25966,SrTa4O11,182,P6_322,hexagonal,3D,3.6193,na,-399.5047067,438.3550233,433.2241118,699.2715956,2698.3821,3652.9449,0.256365616,0.410135086,5.893063446,5.893063446,-397.8780867,441.6061367
JVASP-25988,VHgO3,2,P-1,triclinic,3D,2.083,na,-369.8447133,300.1776633,1033.225526,1112.409264,8202.525067,14260.41401,0.575974553,0.543481922,5.705354176,5.705354176,na,na
JVASP-26017,Ba3ErRu2O9,194,P6_3/mmc,hexagonal,3D,0.0105,na,27.82512533,26.57985133,94.64254586,85.86553714,106234.941,108086.8083,0.021784967,0.019862377,2.94E-05,2.94E-05,27.22902267,26.823749
JVASP-26022,YbBa3Ru2O9,194,P6_3/mmc,hexagonal,3D,0.0144,na,-24.46162467,59.62874967,191.4888228,144.1161261,24911.90133,23913.02067,0.048576463,0.052229911,0.000803645,0.000803645,-74.485762,50.62696633
JVASP-26039,RbMgF3,194,P6_3/mmc,hexagonal,3D,7.3044,na,-98.90518367,456.14231,586.3236456,423.8482102,61680.35767,1931.439643,0.192202881,0.250816226,0.322187212,0.322187212,na,na
JVASP-26040,NbSeI3,2,P-1,triclinic,2D,0.0212,na,-343.76696,286.9446733,558.2323198,411.6822146,5813.608543,4840.494033,0.324605155,0.240038577,13.16900707,13.16900707,na,na
JVASP-26046,Al3(BRu2)2,123,P4/mmm,tetragonal,3D,0.0017,na,7.659870667,7.829725533,113.4798854,121.5727478,2064684.867,2074174.067,0.002295955,0.002387498,1.59E-06,1.59E-06,6.097022667,5.957654267
JVASP-26047,Co21(ReB3)2,225,Fm-3m,cubic,3D,0.0011,na,-17.907127,-18.767897,180.0219613,197.089085,561401.62,559540.2733,0.015109372,0.016564017,4.56E-06,4.56E-06,na,na
JVASP-26048,U2(Co7B2)3,225,Fm-3m,cubic,3D,0.0011,na,1.885464567,1.229548467,1.410502568,0.599906191,396768.45,396818.6167,0.00014823,6.30E-05,6.58E-06,6.58E-06,na,na
JVASP-26049,U3TiGe5,193,P6_3/mcm,hexagonal,3D,0.0021,na,-8.918301833,-9.4776488,95.4311192,101.7309272,315334.95,314217.39,0.006841824,0.007329621,1.31E-05,1.31E-05,18.39129737,18.23321893
JVASP-26066,Nb6Co16Si7,225,Fm-3m,cubic,3D,0.0029,na,12.60365533,12.63018333,64.51272113,64.93301003,406118.08,407048.5633,0.0057515,0.005781608,7.21E-06,7.21E-06,-2.0231026,-1.5199114
JVASP-26074,Rb3(FeSe2)2,62,Pnma,orthorhombic,3D,0.0358,na,46.580823,46.88613267,75.4169068,73.51451048,31180.78133,31700.92333,0.035216628,0.034658032,0.000142616,0.000142616,47.46109847,42.8720828
JVASP-26076,Tm2Ni12P7,174,P-6,hexagonal,3D,0.003,na,3.158436333,4.119593,221.249539,237.5439519,592155.2567,590446.4167,0.009875101,0.011137613,9.08E-06,9.08E-06,na,na
JVASP-26078,Na2CN2,12,C2/m,monoclinic,3D,3.3678,5.7682,-181.2290067,454.5819933,1166.597109,1391.633696,35480.114,6482.049733,0.490832695,0.78136843,0.966590213,0.966590213,-156.61583,457.6461667
JVASP-26082,Yb2Ni12P7,174,P-6,hexagonal,3D,0.0094,na,-8.412384,-8.845728167,301.64906,308.7477894,979604.1133,976107.3033,0.006677196,0.006900013,4.03E-06,4.03E-06,na,na
JVASP-26092,Ti3Al2NiN,227,Fd-3m,cubic,3D,0.0671,na,-22.796184,-23.307955,287.9691612,298.3417726,554142.7733,549168.6333,0.020396512,0.021191345,5.03E-06,5.03E-06,-11.576909,-10.914501
JVASP-26103,TbRh3C,221,Pm-3m,cubic,3D,0.0369,0.0596,-18.166877,-15.584139,321.6469625,229.5925496,974583.16,945348.99,0.011401777,0.008126164,3.06E-06,3.06E-06,-11.955056,-9.1443339
JVASP-26112,YbCuAs2,129,P4/nmm,tetragonal,3D,0.0055,na,11.1030089,12.0114962,351.7057895,427.6713456,2490060.067,2506279.167,0.0044382,0.005277877,1.27E-06,1.27E-06,16.01266433,17.18197343
JVASP-26114,Na3PSO3,161,R3c,trigonal,3D,4.193,6.9349,-131.9100267,440.0903,1011.0231,684.4212254,58587.803,3604.455467,0.36125364,0.40002052,0.659239919,0.659239919,-111.9630167,457.17673
JVASP-26119,Mo3Pd2N,213,P4_132,cubic,3D,0.0422,na,13.687872,15.573218,85.84031571,112.1495374,458162.39,462424.42,0.005796577,0.007608943,6.84E-06,6.84E-06,14.733581,15.93655
JVASP-26125,YbMgGe,62,Pnma,orthorhombic,3D,0.0127,0.0523,-176.5545867,111.8068627,2630.563789,683.7299894,74796.484,53772.42833,0.507408522,0.155827374,0.000349612,0.000349612,-102.137542,40.71954333
JVASP-26126,PuAl3,166,R-3m,trigonal,3D,0.0167,na,-44.11091,-45.440386,1773.763787,1855.395694,864687.5767,852298.7767,0.094982558,0.100805448,3.66E-06,3.66E-06,na,na
JVASP-26131,Ba3Nb2O8,166,R-3m,trigonal,3D,4.7038,5.2577,-357.1383467,436.2600233,1631.814932,626.1723217,12781.47767,3265.0747,0.901317013,0.37069267,1.5009126,1.5009126,-286.2069867,448.2605033
JVASP-26172,Sr2MnGaO5,46,Ima2,orthorhombic,3D,0.0167,na,-39.247347,-38.13741167,52922.85541,50073.83342,21078514.43,19966524.5,0.028088163,0.036885813,3.46E-07,3.46E-07,26.07351103,25.15220817
JVASP-26175,TlCr3S5,12,C2/m,monoclinic,3D,0.0024,na,-12.21474467,89.021088,577.1965024,423.3489102,15443.5539,20216.99333,0.221950589,0.190464819,0.001485229,0.001485229,3.1615998,3.391545333
JVASP-26176,K2PaF7,15,C2/c,monoclinic,3D,4.3431,4.1681,-541.59284,421.7722433,49.28227968,182.4957424,165.4336477,1016.50304,0.02949309,0.108567382,1734.233438,1734.233438,-531.8730533,440.8669433
JVASP-26180,Mo2As3,12,C2/m,monoclinic,3D,0.0018,0.002,7.251348333,8.583513,1008.859517,1032.977324,773925.9767,781264.1133,0.036938483,0.037075116,4.12E-06,4.12E-06,2.996688,4.286610333
JVASP-26181,Ca2B5Os3,5,C2,monoclinic,3D,0.0076,na,-3.618659667,-6.075271,72.93553165,88.797884,791716.79,788475.3833,0.004652798,0.005492689,3.39E-06,3.39E-06,na,na
JVASP-26182,Mg(AlCl4)2,15,C2/c,monoclinic,0D,5.2049,na,-84.280611,401.11202,502.5402524,143.2621489,70019.38,901.5762233,0.154706587,0.085635729,0.300192146,0.300192146,-132.3713667,432.6094067
JVASP-26193,NaPr2RuO6,14,P2_1/c,monoclinic,3D,0.0085,na,-304.6284967,316.13268,549.0890522,543.5638533,5893.993067,5531.365233,0.313685403,0.314241649,1.210099153,1.210099153,-315.8533967,330.2631233
JVASP-26206,AlRu,221,Pm-3m,cubic,3D,0.007,na,12.721212,12.674549,1955.81408,1947.2293,12085666,12121380,0.006644616,0.006600559,2.32E-07,2.32E-07,na,na
JVASP-26224,Na3In2Au,227,Fd-3m,cubic,3D,0.004,na,8.5908974,6.4665101,82.81550583,47.4292891,1122107.833,1134244.533,0.003092532,0.001801342,2.33E-06,2.33E-06,7.4802905,5.737232
JVASP-26231,Co21(B3Mo)2,225,Fm-3m,cubic,3D,0.002,na,-21.591132,-21.640012,202.0325446,202.2714874,433381.64,431936.27,0.017074073,0.01710023,6.89E-06,6.89E-06,na,na
JVASP-26248,AsS,14,P2_1/c,monoclinic,3D,1.5011,na,-225.97311,247.16939,901.3411481,762.7071991,19121.08127,12614.48167,0.449044746,0.412090999,1.874654089,1.874654089,-276.81047,257.8275867
JVASP-26249,GaTe,12,C2/m,monoclinic,2D,0.9182,na,-205.03872,188.31178,2646.225244,1378.243325,73964.38,39567.8524,0.752125121,0.538485175,0.724697003,0.724697003,-193.4005233,230.5123233
JVASP-26251,Zr5SiSb3,193,P6_3/mcm,hexagonal,3D,0.0008,na,-30.40889033,-30.37021467,1342.08931,1346.723682,1108997.51,1082959.597,0.040811021,0.040507974,2.80E-06,2.80E-06,-30.08368333,-29.77443067
JVASP-26265,Nd12Ni6Sn,204,Im3,cubic,3D,0.0151,na,37.102379,37.065247,675.8257949,684.9902689,490943.2,498598.0833,0.049412689,0.05005741,6.24E-06,6.24E-06,24.928643,24.801696
JVASP-26268,SrCrO4,14,P2_1/c,monoclinic,3D,2.6591,na,-475.1777867,394.3214767,265.1773834,254.8149073,1200.816353,1652.3616,0.15820339,0.151593783,23.1257907,23.1257907,-473.77854,412.23595
JVASP-26272,TiAl3,139,I4/mmm,tetragonal,3D,0.0064,0.0046,21.081231,20.79722567,1514.336352,1489.733272,3427962.267,3462719.933,0.018386453,0.017907447,8.18E-07,8.18E-07,na,na
JVASP-26276,MnGaH4O2F5,74,Imma,orthorhombic,3D,1.9336,na,-138.9986467,337.0577933,710.9481889,103.7312925,36655.43633,903.6842567,0.298301013,0.062054759,0.575956363,0.575956363,-133.26346,356.2210333
JVASP-26279,LiFeAsO4,62,Pnma,orthorhombic,3D,0.004,na,-6.174571333,5.843025,196.5121145,232.2917187,19926.47367,20314.871,0.083500646,0.092384405,0.000593173,0.000593173,-150.4794533,-138.3056367
JVASP-26316,NdBi2ClO4,123,P4/mmm,tetragonal,3D,1.2039,2.649,-85.68003633,328.57512,683.5492677,1513.870688,81380.818,20985.94413,0.179327022,0.67913805,0.331444957,0.331444957,-86.71229167,326.9941633
JVASP-26323,PrBi2IO4,123,P4/mmm,tetragonal,3D,1.3572,na,-74.50974933,390.60601,629.6716764,3162.683567,100147.1837,22424.95,0.145480867,1.5271386,0.373155484,0.373155484,-72.60022533,372.02402
JVASP-26324,LuBi2BrO4,123,P4/mmm,tetragonal,3D,1.5669,3.3505,-79.215237,273.7864467,633.7292323,2273.034836,90336.157,31415.43233,0.159705422,0.973380694,0.31701799,0.31701799,-76.10415,316.0732433
JVASP-26326,YZnAsO,129,P4/nmm,tetragonal,3D,1.2869,na,-322.9819367,272.7814533,3606.268735,4731.005549,34440.04467,56554.29233,1.449588523,1.65926707,0.717110703,0.717110703,-307.0775133,269.4417933
JVASP-26327,TmBi2ClO4,123,P4/mmm,tetragonal,3D,1.4968,3.2385,-83.000909,353.3086567,630.2538913,2382.641069,84041.66767,19820.3617,0.168251114,1.159039082,0.314114045,0.314114045,-81.08154967,345.7670867
JVASP-26329,SmBi2ClO4,123,P4/mmm,tetragonal,3D,1.2787,2.7695,-84.55619467,336.4522733,663.9275205,1795.811188,82699.691,20758.51733,0.174897917,0.815210737,0.326151797,0.326151797,na,na
JVASP-26331,DyBi2IO4,123,P4/mmm,tetragonal,3D,1.5217,2.7204,-70.991991,386.17273,548.2244126,3528.174054,101831.584,24974.72033,0.128973409,1.698844138,0.327919589,0.327919589,-71.13671033,365.0990967
JVASP-26334,Ba2NdBiO6,12,C2/m,monoclinic,3D,1.855,2.3932,-221.2860967,441.4961567,1712.165162,560.7124575,34095.62367,2996.386367,0.689548452,0.329422636,0.706166976,0.706166976,-161.9249533,455.5611467
JVASP-26335,TmBi2BrO4,123,P4/mmm,tetragonal,3D,1.5286,3.3123,-79.03253567,277.98098,630.7300676,2277.281744,90090.35767,30465.925,0.15821985,0.987110343,0.32182561,0.32182561,-76.53824167,315.76103
JVASP-26336,NaCNO,160,R3m,trigonal,3D,4.5749,7.3966,-182.34915,434.1823867,1219.929121,1117.052607,35783.12467,5812.2533,0.510540372,0.629789747,0.950182777,0.950182777,na,na
JVASP-26337,ErBi2BrO4,123,P4/mmm,tetragonal,3D,1.5041,3.2426,-79.36793633,280.8727167,640.3039059,2287.010648,90042.98967,29939.08733,0.160128076,0.999352709,0.304564477,0.304564477,-77.02653533,317.9512133
JVASP-26338,HoBi2BrO4,123,P4/mmm,tetragonal,3D,1.4808,3.2113,-79.17019133,284.08703,639.2157018,2292.084082,89661.082,29282.38233,0.159193673,1.009896841,0.306337619,0.306337619,-77.795012,324.5859767
JVASP-26342,HgPb2(ClO)2,12,C2/m,monoclinic,2D,2.4009,na,-301.6634333,257.81079,1930.5528,1007.834816,21423.89267,13952.9154,0.962614383,0.51577786,1.109285398,1.109285398,-233.8181467,246.5999333
JVASP-26343,Y2C(NO)2,164,P-3m1,trigonal,3D,3.9697,na,-196.28423,411.2302133,1186.413089,1510.136997,27020.41223,8907.3058,0.495950041,0.840449321,1.13464228,1.13464228,-235.1142367,407.1646533
JVASP-26345,TbBi2ClO4,123,P4/mmm,tetragonal,3D,1.3849,na,-83.88951433,348.1569767,648.8076904,2161.726134,83425.86233,20030.23767,0.171355776,1.015787896,0.319120506,0.319120506,-83.448505,338.8960933
JVASP-26354,BaZnSO,63,Cmcm,orthorhombic,3D,2.416,na,-129.5842767,228.6780367,1242.765292,1248.046209,73850.96533,26476.69767,0.354203188,0.54784285,0.476650443,0.476650443,-132.6890633,223.5950233
JVASP-26358,HoBi2ClO4,123,P4/mmm,tetragonal,3D,1.4361,3.1053,-83.17069167,350.3748767,635.7659969,2281.077878,83829.289,20057.59853,0.168860062,1.088656636,0.318303361,0.318303361,-82.28644533,340.9372133
JVASP-26359,NdBi2IO4,123,P4/mmm,tetragonal,3D,1.386,2.7214,-73.982101,390.9053867,616.8316704,3250.787296,100716.226,22793.0554,0.142658977,1.574264054,0.368428173,0.368428173,-72.112872,373.1108667
JVASP-26360,TbBi2BrO4,123,P4/mmm,tetragonal,3D,1.4395,3.0336,-80.620412,288.3712233,669.2318409,2291.730623,89580.55367,28291.44233,0.166226355,1.023490493,0.316386106,0.316386106,-78.047854,321.4630667
JVASP-26361,Sr2Cu(IO)2,139,I4/mmm,tetragonal,3D,0.1455,na,56.81149863,54.86194907,126.5852813,184.4615796,816947.698,800450.4627,0.034525908,0.046816464,0.000232786,0.000232786,na,na
JVASP-26362,KNb4O5F,123,P4/mmm,tetragonal,3D,0.0039,na,5.135133333,5.540525667,609.1974365,609.3128501,1391491.6,1372782.61,0.033684246,0.034939892,6.01E-06,6.01E-06,5.343341,5.787260333
JVASP-26366,ErBi2ClO4,123,P4/mmm,tetragonal,3D,1.4663,3.1982,-83.00423933,351.7530667,630.683168,2324.075231,83773.536,19893.44507,0.167680103,1.119386633,0.317854778,0.317854778,na,na
JVASP-26368,DyZnPO,166,R-3m,trigonal,3D,1.2602,na,-295.9259933,200.4677,2902.670132,2124.750926,32919.33267,45739.6013,1.294227424,0.784415511,0.838263717,0.838263717,-299.4219733,200.7096133
JVASP-26369,Ba2Ca(BO3)2,12,C2/m,monoclinic,3D,4.2697,5.526,-167.58574,369.5938633,944.4417779,1154.80374,33658.472,8224.973233,0.402120757,0.629208664,0.813979064,0.813979064,-172.3008433,372.3544233
JVASP-26370,SmBi2BrO4,123,P4/mmm,tetragonal,3D,1.3685,2.8612,-80.58878733,298.62602,678.6500398,2307.497388,88810.95867,26229.36567,0.167283693,1.067285058,0.331554841,0.331554841,-80.27111733,336.0197167
JVASP-26375,CdBiClO2,11,P2_1/m,monoclinic,2D,3.0883,4.3788,-223.6213567,408.97549,1298.709711,1306.628486,24931.48003,7763.370067,0.574883919,0.738749228,2.477270418,2.477270418,-183.61251,404.7949867
JVASP-26377,LuBi2IO4,123,P4/mmm,tetragonal,3D,1.6011,2.8618,-70.39641533,379.8023133,531.3003333,3544.484933,102139.012,26429.43367,0.126845445,1.675972672,0.312679928,0.312679928,na,na
JVASP-26380,LuBi2ClO4,123,P4/mmm,tetragonal,3D,1.5449,3.3072,-82.29241867,353.91017,616.0466545,2453.318046,84162.97367,19926.12187,0.165188907,1.205189232,0.311985017,0.311985017,-80.98873067,346.2707933
JVASP-26381,SmZnPO,166,R-3m,trigonal,3D,1.2223,na,-279.6808633,198.0826333,2482.913449,2060.738492,31242.42833,45423.03677,1.09703172,0.766913574,0.948582412,0.948582412,-302.0668067,199.7099367
JVASP-26383,KLiZnO2,12,C2/m,monoclinic,3D,2.5225,4.205,-135.05824,365.0343367,857.0606485,1025.533859,47156.43067,6932.864267,0.321061948,0.563201836,0.574951484,0.574951484,-101.4805667,387.2338033
JVASP-26384,HoBi2IO4,123,P4/mmm,tetragonal,3D,1.5384,2.7496,-70.26390733,385.06677,539.9455957,3542.338288,102247.247,25259.66833,0.127313183,1.700609687,0.321554618,0.321554618,-70.454377,365.6065533
JVASP-26386,BaBiIO2,63,Cmcm,orthorhombic,3D,2.9829,na,-203.5326167,339.5011,1443.272871,1042.221532,32313.2299,9287.55988,0.556306627,0.563041257,1.948192382,1.948192382,-229.5201133,330.49692
JVASP-26387,ErBi2IO4,123,P4/mmm,tetragonal,3D,1.5568,2.7977,-70.76799,383.77165,543.5399324,3563.468251,102202.844,25651.48133,0.128346207,1.704286461,0.324706984,0.324706984,-70.52343667,363.0454033
JVASP-26389,Ba2CuClO2,166,R-3m,trigonal,3D,2.4154,2.7,-326.1136233,471.5001033,1972.823014,380.8851346,20482.20667,1708.68214,0.985701678,0.225910365,3.173217277,3.173217277,-300.52021,472.46231
JVASP-26390,Tl2O,12,C2/m,monoclinic,2D,0.0174,na,-173.6302633,343.5953333,3205.938457,3777.077606,104173.923,43779.602,0.841837801,1.351395543,0.242213973,0.242213973,-166.0483033,346.1640967
JVASP-26392,YBi2IO4,123,P4/mmm,tetragonal,3D,1.5271,2.9829,-71.309156,386.7070433,555.4954393,3548.022131,101896.009,24941.82233,0.130480522,1.712284483,0.324739877,0.324739877,-71.161472,368.9483467
JVASP-26393,NbTlBr4O,5,C2,monoclinic,2D,1.3342,1.5401,-287.43324,269.7277633,1342.265184,1310.015329,20220.24745,18524.12833,0.637691683,0.632528319,19.56323382,19.56323382,-331.58809,248.37339
JVASP-26396,PrBi2BrO4,123,P4/mmm,tetragonal,3D,1.2888,2.7159,-83.30971333,303.7424367,741.0209056,2240.787156,86731.02967,24194.56167,0.181269743,1.081057209,0.343167688,0.343167688,-82.120716,341.8245333
JVASP-26397,DyBi2ClO4,123,P4/mmm,tetragonal,3D,1.4111,3.1272,-83.44848967,349.73461,637.350615,2225.734814,83155.398,19994.8181,0.168608086,1.054748011,0.314307032,0.314307032,-82.870985,340.28657
JVASP-26398,YbBi2BrO4,123,P4/mmm,tetragonal,3D,1.4249,0.0592,23.37976067,21.414866,1295.727556,1185.727202,882001.9867,894694.0867,0.058242847,0.052458467,3.97E-06,3.97E-06,na,na
JVASP-26400,Bi2SeO2,139,I4/mmm,tetragonal,3D,0.2769,1.2524,-71.55755367,336.53624,636.1544057,3424.057354,110647.0497,36665.08633,0.129807692,1.313338248,0.309001477,0.309001477,-67.169783,326.33786
JVASP-26401,YClO,166,R-3m,trigonal,2D,4.2845,na,-310.7375333,345.77957,1709.297654,1023.476253,20544.09723,8689.121633,0.810784353,0.577490794,257.2577331,257.2577331,-292.37291,344.96438
JVASP-26404,SrBiBrO2,63,Cmcm,orthorhombic,3D,3.2326,na,-205.0609433,383.4104167,1571.419748,1259.944686,40024.57533,10354.01688,0.596117607,0.66948477,1.556091253,1.556091253,-233.45952,363.0776767
JVASP-26405,SmBi2IO4,123,P4/mmm,tetragonal,3D,1.4378,2.7738,-72.57311367,389.6341233,585.2433396,3360.180708,100957.637,23500.49607,0.136035166,1.627046936,0.342066945,0.342066945,-71.70426567,370.8863467
JVASP-26407,Sr2CuBrO2,166,R-3m,trigonal,3D,2.5796,na,-272.6088867,521.26257,1946.29335,263.3252898,25762.35433,1132.66091,0.877048393,0.157081322,0.690685305,0.690685305,-162.9765733,518.13914
JVASP-26408,SrBiIO2,63,Cmcm,orthorhombic,3D,2.947,na,-166.9941467,347.42275,1230.975319,1128.917216,43352.66147,9078.5841,0.452956035,0.598191435,1.284069351,1.284069351,-169.04895,351.87169
JVASP-26409,YBi2ClO4,123,P4/mmm,tetragonal,3D,1.4302,3.0114,-83.84988633,352.6993667,645.4398398,2297.153551,83085.11967,19571.14,0.170711345,1.106370495,0.313530964,0.313530964,-82.63064633,331.1800867
JVASP-26411,TmBi2IO4,123,P4/mmm,tetragonal,3D,1.5746,2.8099,-70.136233,382.1063933,527.9062616,3566.754675,101901.9103,26019.929,0.125289746,1.69865957,0.319194013,0.319194013,-70.13580033,364.6859767
JVASP-26412,BaBiClO2,63,Cmcm,orthorhombic,3D,3.3,na,-276.0682167,357.8587033,2216.367785,1090.073648,27974.8322,9053.6916,0.988222973,0.593494203,1.841020306,1.841020306,-262.3661767,352.29035
JVASP-26413,TbBi2IO4,123,P4/mmm,tetragonal,3D,1.5039,na,-71.15689633,387.0326067,555.0518046,3497.299512,101918.8397,24644.22467,0.130405432,1.686741872,0.321985722,0.321985722,-71.340393,364.91988
JVASP-26414,Ba2CuBrO2,166,R-3m,trigonal,3D,2.4444,na,-300.5859567,472.67084,1949.30465,404.8335261,20459.06743,1822.631343,0.952235031,0.240125146,1.408313204,1.408313204,-310.6042667,466.67241
JVASP-26416,DyBi2BrO4,123,P4/mmm,tetragonal,3D,1.461,3.2105,-79.199411,286.1073867,640.407666,2292.544892,89563.69433,28826.68867,0.159158318,1.016669934,0.312569776,0.312569776,-77.58571067,323.5910467