JID,Composition,Spg.numb.,Spg.symb.,Cryst.,Dimensionality,OPT SCF gap, MBJ gap,n-Seebeck,p-Seebeck,n-powerfact,p-powerfact,n-cond,p-cond,n-ZT,p-ZT,Avg.elec.mass,Avg.hole mass,n-mp-Seeb,p-mp-Seeb
JVASP-26417,CaBiClO2,11,P2_1/m,monoclinic,3D,3.6306,4.9154,-279.6871533,357.6912833,2397.801652,729.6779788,29357.77027,5878.7898,0.979294926,0.41358795,2.281439742,2.281439742,-300.2516267,319.8611333
JVASP-26418,PrBi2ClO4,123,P4/mmm,tetragonal,3D,1.1642,2.5915,-86.830105,325.1948267,702.3501856,1375.930132,80487.43033,20997.8963,0.183603984,0.614888058,0.343995944,0.343995944,-87.21891567,329.0983767
JVASP-26419,NdBi2BrO4,123,P4/mmm,tetragonal,3D,1.3166,2.7743,-82.60949033,301.82711,722.7628665,2265.732004,87300.58433,24911.54367,0.177154387,1.077706613,0.328458877,0.328458877,-80.96677133,336.4584867
JVASP-26420,YBi2BrO4,123,P4/mmm,tetragonal,3D,1.4606,3.0857,-79.400345,279.8145233,649.2827106,2246.558467,89828.81333,29551.92433,0.161577208,0.987207971,0.310301414,0.310301414,-78.676565,325.6850667
JVASP-26431,K3MoF6,225,Fm-3m,cubic,3D,1.6458,2.664,-234.49973,438.11354,655.1390955,145.0493921,11913.75933,755.6880633,0.333345737,0.086936648,0.706756354,0.706756354,na,na
JVASP-26443,ScNbO4,13,P2/c,monoclinic,3D,3.3156,3.7871,-342.3503367,450.3097467,839.2599741,956.87737,7214.111733,4710.1764,0.461534605,0.552822755,2.063336805,2.063336805,-377.03924,455.3291633
JVASP-26455,Be2BO3F,15,C2/c,monoclinic,3D,6.2946,9.7704,-200.5966833,438.66438,1072.292309,421.1427072,27728.14233,2169.823067,0.489148932,0.2476326,1.195799942,1.195799942,-144.34318,370.2809267
JVASP-26460,Na2Al2B2O7,163,P-31c,trigonal,3D,4.5096,na,-96.009185,524.7968167,714.8777746,217.8399923,31345.16282,813.0427588,0.290426998,0.128899882,19.39385288,19.39385288,-121.5876967,516.6564
JVASP-26464,SmSeClO3,62,Pnma,orthorhombic,3D,4.3956,na,-418.2813,395.8663133,428.0403411,359.1708521,2569.38833,2256.732607,0.247173473,0.212033828,28.51124193,28.51124193,-412.1648067,388.3081033
JVASP-26471,NiRhF6,148,R-3,trigonal,3D,0.8405,na,58.16165767,57.376204,477.2620699,469.8602629,139380.03,140904.4867,0.109920552,0.107304973,2.03E-05,2.03E-05,na,na
JVASP-26472,Sm3SiCuS7,173,P6_3,hexagonal,3D,1.6807,2.1845,-213.08612,313.18065,1373.309726,791.3429303,29811.60967,9206.937533,0.645976029,0.448577461,0.920875407,0.920875407,-203.8405133,305.8034933
JVASP-26473,Ti6O,163,P-31c,trigonal,3D,0.0066,0.0081,0.696602467,2.2758753,24.00499413,26.0290957,517571.4633,518582.6233,0.001167319,0.001214739,6.21E-06,6.21E-06,5.817773633,6.482398633
JVASP-26485,K3Mn2F7,139,I4/mmm,tetragonal,3D,1.6788,na,-351.3832867,324.91139,786.7898469,1160.359312,8127.0032,15767.33137,0.417315101,0.533562058,137.0882676,137.0882676,na,na
JVASP-26494,KRb2MoF6,225,Fm-3m,cubic,3D,1.9048,2.5786,-422.86494,436.3816,207.9208588,140.2076435,1162.772367,736.2729233,0.124215405,0.084042802,12.26936201,12.26936201,na,na
JVASP-26498,RbSnIO6,182,P6_322,hexagonal,3D,2.236,na,-144.9107867,412.8147767,838.588171,212.3466747,36713.36367,1250.8071,0.331280413,0.126787809,0.553957081,0.553957081,-140.6499667,429.0510333
JVASP-26510,K2NaCrF6,225,Fm-3m,cubic,3D,2.3101,1.1839,-330.20437,446.47541,554.0306973,114.6065757,5081.2223,574.9293067,0.325023261,0.068702756,3.609714372,3.609714372,na,na
JVASP-26523,TlBiS2,166,R-3m,trigonal,3D,0.1271,na,-133.1080133,183.74255,1782.528832,2165.585119,101625.993,65707.66067,0.441332866,0.577673366,0.198691863,0.198691863,-128.9125233,192.0222267
JVASP-26524,RbCrF6,148,R-3,trigonal,3D,0.7279,2.3537,-46.97643,-49.421359,84.9548476,92.71231275,37016.649,36654.35167,0.043522864,0.047623693,5.67E-05,5.67E-05,na,na
JVASP-26527,SrCrF6,166,R-3m,trigonal,3D,1.6072,1.7147,9.296978933,7.613804733,28.32706626,27.66934364,62986.41933,62956.98267,0.011919651,0.011574107,4.03E-05,4.03E-05,31.46208333,29.73930933
JVASP-26528,Rb2IrF6,164,P-3m1,trigonal,3D,2.5516,2.8708,40.752616,37.61007067,81.85592098,72.25217256,38406.16667,38819.49267,0.04278698,0.037674442,5.39E-05,5.39E-05,na,na
JVASP-26529,CrF2,14,P2_1/c,monoclinic,2D,0.0602,na,-313.52542,402.20504,912.4511401,534.8979204,8941.1463,3163.583,0.501211452,0.307634208,1.738964851,1.738964851,na,na
JVASP-26561,NaMnF4,14,P2_1/c,monoclinic,3D,0.9911,na,-386.8627733,308.3635233,677.2261615,927.9919303,4384.340967,7955.508533,0.397374511,0.510319624,7.383922434,7.383922434,-380.21276,334.9873533
JVASP-26566,Mg3B(OF)3,176,P6_3/m,hexagonal,3D,5.8212,na,-134.5531633,510.5894267,946.701035,149.8390385,52402.209,564.3318667,0.348170565,0.089437895,0.613290592,0.613290592,-124.3510433,510.9873767
JVASP-26567,Bi2Os2O7,227,Fd-3m,cubic,3D,0.0207,na,-22.637266,-21.830322,366.7663944,336.0405578,715717.42,705133.6067,0.018218193,0.016658637,4.40E-06,4.40E-06,na,na
JVASP-26626,Ba2InBrO3,129,P4/nmm,tetragonal,3D,2.0435,na,-102.3307007,359.0797833,969.797749,1235.36176,59295.73267,16646.33821,0.282365297,0.571337336,0.330987087,0.330987087,-91.72003767,423.7209433
JVASP-26630,Bi2Rh2O7,227,Fd-3m,cubic,3D,0.0141,na,-16.60305,-18.440516,281.6155068,344.8583221,1021599.833,1014132.2,0.014005137,0.017203387,2.53E-06,2.53E-06,na,na
JVASP-26631,NaSbF4,14,P2_1/c,monoclinic,3D,4.3964,na,-244.8183033,297.5890433,1496.556647,892.0075539,19627.72727,9376.910933,0.669324377,0.485171333,1.204319293,1.204319293,-297.98215,310.6262633
JVASP-26635,RbSbBrF3,2,P-1,triclinic,3D,3.8792,5.3169,-248.4413667,373.4058767,836.5069088,640.44891,13326.88743,4665.628197,0.438881929,0.370705412,1.362614873,1.362614873,-254.2144767,377.9646933
JVASP-26645,Na5Zr2F13,12,C2/m,monoclinic,3D,6.2745,na,-374.1439667,455.1059067,478.4658881,568.8575991,3496.888217,3140.085645,0.278840122,0.329151733,22.26806337,22.26806337,-381.8709033,460.60916
JVASP-26654,K2Zn(SiO3)2,20,C222_1,orthorhombic,3D,4.2579,na,-98.73878633,417.3813167,656.7801906,368.8147824,69180.63967,2129.022637,0.206479343,0.218153095,0.385220511,0.385220511,-123.6959833,423.54525
JVASP-26666,K3WF6,225,Fm-3m,cubic,3D,0.1106,2.5258,-79.10967733,429.61506,0.767374623,152.2233214,122.6163,824.7497633,0.000447087,0.090838221,2.6291065,2.6291065,na,na
JVASP-26673,As2O5,96,P4_32_12,tetragonal,3D,1.5602,na,-95.25644667,343.00097,591.8380472,436.6687566,65227.746,2940.0144,0.194644274,0.250608018,0.361165639,0.361165639,-99.74775267,352.9144567
JVASP-26681,Na3OsO5,152,P3_121,trigonal,3D,0.0109,na,-16.21332233,-8.6252322,5.815613644,1.908025429,22430.64143,22415.2721,0.002122227,0.00069549,0.000486535,0.000486535,na,na
JVASP-26682,K3Co2F7,139,I4/mmm,tetragonal,3D,0.4718,0.0522,50.099673,48.917999,577.7242853,549.1573976,281190.8107,284108.5307,0.067462937,0.063580426,0.001230358,0.001230358,2.661877333,2.739572
JVASP-26688,K3Y(BO3)2,58,Pnnm,orthorhombic,3D,3.3604,na,-151.4219767,297.1805667,1016.968311,981.1744669,43171.87333,10843.4195,0.396708759,0.522138279,0.729966691,0.729966691,-137.8348233,305.1649133
JVASP-26689,Ho3CuGeS7,173,P6_3,hexagonal,3D,1.6814,na,-186.7157933,257.7882433,1369.255502,961.3024929,38113.83433,14853.2904,0.553890668,0.519481358,0.661544245,0.661544245,-205.34286,274.2113467
JVASP-26694,Sm3Si2S8Br,15,C2/c,monoclinic,3D,2.5883,na,-254.9366333,339.8244933,742.9884566,837.1427712,11053.2049,7082.121033,0.412176271,0.475464355,1.874350287,1.874350287,-281.1538267,349.20923
JVASP-26716,Na4Ti5O12,147,P-3,trigonal,3D,2.5703,2.9667,-406.7678167,399.94971,1562.231848,968.6627309,9364.973643,6038.663933,0.86910153,0.555778894,19.06089874,19.06089874,-412.5958067,422.2050667
JVASP-26725,SrNiF6,166,R-3m,trigonal,3D,1.19,0.7932,-478.91175,439.2427067,1367.857237,769.8723221,6005.151,4072.176367,0.788639583,0.45157284,4.925290408,4.925290408,-475.3212333,463.8242733
JVASP-26727,BaHg2(ClO)2,127,P4/mbm,tetragonal,3D,1.6467,3.0354,-78.29294067,252.7653333,457.4186497,953.5441472,80872.178,12663.1498,0.135378079,0.492375689,0.294718825,0.294718825,-118.09699,281.75251
JVASP-26728,RbAu(SO4)2,2,P-1,triclinic,3D,1.8576,2.0178,-400.79331,325.1820633,88.02553572,742.8872623,518.37182,6248.801467,0.052765724,0.403668368,71.8810549,71.8810549,-393.0978733,327.31806
JVASP-26731,Nd2SnS5,55,Pbam,orthorhombic,3D,0.0209,na,-53.77600553,45.16254167,448.1821509,441.4869794,81090.418,63432.587,0.095455982,0.094329025,7.31E-05,7.31E-05,-59.902596,79.6402142
JVASP-26732,BaNb10SiO19,173,P6_3,hexagonal,3D,0.4222,na,-3.123939333,1.001338,66.47602471,66.8913368,49089.65367,48947.04267,0.022695157,0.023145249,0.000100341,0.000100341,20.33613233,19.92684433
JVASP-26735,AlSCl7,7,Pc,monoclinic,0D,2.6913,3.771,-377.8270833,358.10217,130.1291364,351.636825,901.8052233,2931.897667,0.077980859,0.208081813,18.36126993,18.36126993,-366.2176767,410.00176
JVASP-26736,NaSr3BiO6,167,R-3c,trigonal,3D,1.7627,2.6045,-142.3558733,406.1135267,791.5287119,716.8070244,39063.03867,4343.645667,0.327186583,0.419897033,0.631704588,0.631704588,-122.4879867,423.1893667
JVASP-26739,Hg3As8(S4Br3)2,14,P2_1/c,monoclinic,0D,1.715,2.7165,-309.9078133,292.3002233,200.333247,149.6350277,2322.614347,1889.122593,0.118675352,0.089228099,12.60297309,12.60297309,-273.1337967,300.34476
JVASP-26740,Sn2PClO4,40,Ama2,orthorhombic,3D,2.9111,4.0819,-200.8484867,208.6933067,2068.304168,1680.873554,51018.335,33593.931,0.773183776,0.630224282,0.396520345,0.396520345,-198.9971967,209.2394933
JVASP-26741,K2PO4,14,P2_1/c,monoclinic,3D,3.2988,4.1566,-384.6550933,415.4094133,19.07547029,266.5324845,127.427387,1597.315613,0.011444949,0.158609186,152.5979426,152.5979426,-375.77723,424.15315
JVASP-26742,LuSF,166,R-3m,trigonal,3D,2.4467,3.6065,-272.1974267,238.83547,3093.244567,1779.405025,41535.266,28111.46433,1.294647808,0.781728823,0.713197315,0.713197315,-246.06116,241.50799
JVASP-26743,Na2Cd3(P2O7)2,2,P-1,triclinic,3D,3.3219,5.724,-120.89248,403.52282,786.0624047,242.4385363,53907.034,1488.014343,0.283558933,0.143621544,0.502452906,0.502452906,-117.6476867,419.33553
JVASP-26744,Rb2Ag2GeS4,15,C2/c,monoclinic,3D,1.878,2.6719,-180.13096,332.2402633,968.5752256,446.0535754,27018.55833,4062.2876,0.40240618,0.259533418,0.683183352,0.683183352,-109.850365,347.5230533
JVASP-26746,P4PtF12,217,I-43m,cubic,0D,4.9462,6.0222,-409.28627,425.82241,676.6845563,676.7842423,4039.54,3732.443233,0.400504445,0.400203032,4.711025393,4.711025393,-416.85623,439.55124
JVASP-26748,Na2CuSbS3,14,P2_1/c,monoclinic,3D,1.376,na,-185.34043,369.0698067,2921.260418,1051.560905,53465.42797,7669.102933,0.461606425,0.577969988,1.805506818,1.805506818,-137.6864867,356.6669633
JVASP-26749,LiAsS2,9,Cc,monoclinic,3D,0.9263,1.5192,-219.0643033,248.3486933,3298.556336,2376.697265,68737.87833,35682.19167,0.871173724,0.9561061,3.001991527,3.001991527,-196.6209533,270.6220233
JVASP-26750,ZnBi2B2O7,32,Pba2,orthorhombic,3D,2.6886,na,-85.79875733,359.50873,515.3140099,387.6267092,72954.11033,2949.0395,0.159619092,0.228265068,0.397611366,0.397611366,-138.59445,360.9796433
JVASP-26752,Pr3SiCuS7,173,P6_3,hexagonal,3D,1.6748,2.1504,-217.83517,307.4889433,1345.884843,611.2141006,26607.967,6850.8923,0.627718601,0.354112355,1.039264656,1.039264656,-202.5603533,326.0803167
JVASP-26755,KCuCO3F,26,Pmc2_1,orthorhombic,3D,0.0045,na,33.211887,30.73963665,331.7095466,307.4402034,751556.9433,756232.31,0.065472374,0.058735644,1.05E-05,1.05E-05,37.97389981,35.88925736
JVASP-26756,Al(IO3)3,173,P6_3,hexagonal,3D,3.3087,4.451,-244.4374067,394.2774233,568.1494585,394.6922354,9196.634467,2508.5716,0.308410429,0.232146849,1.01558584,1.01558584,-236.9537733,416.3925867
JVASP-26758,Tb5Se2Cl3O10,12,C2/m,monoclinic,3D,3.6359,na,-270.22665,374.2399233,949.0342106,1450.467442,13371.07026,13716.68794,0.495042065,0.717909696,19.82382307,19.82382307,-289.0656233,423.6420633
JVASP-26759,TlAsF6,148,R-3,trigonal,3D,4.3047,4.0981,-320.43822,428.4543367,1628.0516,1000.295282,15393.59533,5472.351,0.844624129,0.582296163,1.397673182,1.397673182,-308.8617033,415.37778
JVASP-26762,Na2P2PbO7,2,P-1,triclinic,3D,4.4891,6.222,-207.6606067,379.2834067,974.8742997,277.3047204,19605.24973,1948.165533,0.455760327,0.164810453,1.291810559,1.291810559,-272.9858533,396.6012033
JVASP-26763,VF2,136,P4_2/mnm,tetragonal,3D,0.0603,0.0229,-25.747598,-25.85200667,3161.988947,3142.034047,864541.2333,863383.5967,0.144979992,0.144956477,3.53E-06,3.53E-06,-368.80827,300.7200867
JVASP-26764,RbNa7(CoO3)2,12,C2/m,monoclinic,3D,0.0006,0.011,35.442211,34.25631633,33.44857201,31.68543012,25472.26167,25656.49533,0.01529055,0.014466667,9.92E-05,9.92E-05,na,na
JVASP-26765,Dy2Te5O13,2,P-1,triclinic,2D,3.0443,4.5187,-277.9234367,263.0567833,507.2757286,219.5533879,6638.0103,3122.7556,0.296218489,0.130103928,2.772767547,2.772767547,na,na
JVASP-26766,Er3SiSe2O10F,52,Pnna,orthorhombic,3D,4.1203,na,-324.7565867,382.5105767,276.5719969,323.4733366,2802.088094,2325.276067,0.162552477,0.189769962,258.2492444,258.2492444,-359.4989233,405.8825533
JVASP-26767,BaSnHgS4,34,Pnn2,orthorhombic,3D,1.8041,2.9185,-155.8029533,306.78101,542.9228453,799.5571919,22536.84067,8523.886167,0.2637463,0.457839771,0.405523737,0.405523737,-114.7944467,300.8658367
JVASP-26770,NaTl2MoF6,225,Fm-3m,cubic,3D,0.5672,1.5595,10.962981,9.306578733,5.796288804,4.182866519,48227.27167,48294.07967,0.003112144,0.002246975,3.65E-05,3.65E-05,na,na
JVASP-26771,Rb2U(SiO3)4,2,P-1,triclinic,3D,2.6055,2.5233,-474.01135,368.3958767,0.428739299,35.16408829,3.154079478,255.4957333,0.000257241,0.021091572,186940.8881,186940.8881,-550.35316,371.3357267
JVASP-26772,Rb2ZnO2,14,P2_1/c,monoclinic,3D,1.7343,na,-97.17515333,392.9978467,620.590813,112.4449079,64330.34767,737.16519,0.205486864,0.067241475,0.38600429,0.38600429,-100.1332137,398.8257233
JVASP-26773,Sm3CuGeS7,173,P6_3,hexagonal,3D,1.7803,2.3767,-239.3551633,273.3210567,1720.243943,908.2604769,29212.937,12736.4606,0.819240505,0.500829745,0.697341927,0.697341927,-252.32059,281.1308833
JVASP-26779,OsCl4O,14,P2_1/c,monoclinic,0D,0.816,na,-385.63146,353.9035133,128.1234383,192.7672626,872.4371767,1590.335967,0.076580339,0.114857687,13.41698064,13.41698064,-408.0768433,373.3637
JVASP-26783,Th2P2O9,64,Cmce,orthorhombic,3D,5.3611,na,-153.1347867,425.0708667,545.9861209,584.9075995,21800.781,3411.363167,0.255842998,0.345201413,0.504806318,0.504806318,-442.1779567,423.1585467
JVASP-26788,SrGa2B2O7,63,Cmcm,orthorhombic,3D,4.1847,na,-131.6172133,420.3004833,944.6256909,643.8984873,54729.08667,3637.7697,0.342600619,0.376174102,0.586445754,0.586445754,-112.1731367,418.1612533
JVASP-26790,Sr4Br6O,186,P6_3mc,hexagonal,3D,4.6154,na,-70.67938733,400.5604,327.1898645,271.6455498,66255.29,1671.241967,0.106021697,0.161911261,0.215713049,0.215713049,-89.58014833,389.7037533
JVASP-26793,Na2RuO3,15,C2/c,monoclinic,3D,0.1467,na,14.34612747,11.6428206,12.77903401,7.150628092,187193.5517,187306.619,0.004122956,0.002771398,5.62E-05,5.62E-05,-46.9916092,-48.00108243
JVASP-26796,Li2MoF6,136,P4_2/mnm,tetragonal,3D,1.026,na,4.885244667,2.492559333,25.55741685,26.2942041,41057.035,40994.26567,0.01301258,0.013307602,5.33E-05,5.33E-05,3.147748,0.493541333
JVASP-26802,AgBiSCl2,63,Cmcm,orthorhombic,2D,1.0928,1.5727,-117.9663967,303.5041067,1128.792016,1662.003936,71472.07367,18443.9656,0.306479083,0.831774246,0.901862587,0.901862587,-125.296067,320.94827
JVASP-26807,DyTiClO3,12,C2/m,monoclinic,3D,3.1761,3.6356,-331.04917,410.5556567,637.4011034,1014.392765,4490.22329,6160.023333,0.356172355,0.582726271,124.2911248,124.2911248,-338.78777,416.97007
JVASP-26809,RbTl(SO4)2,155,R32,trigonal,3D,2.0738,na,-300.8172533,393.4661367,280.9045539,673.0219195,3063.863,4387.4173,0.166506365,0.393422323,2.76973849,2.76973849,-249.9713733,401.7420833
JVASP-26811,Na2BHO3,62,Pnma,orthorhombic,3D,4.1591,7.149,-117.40466,386.29205,731.4886668,634.7976965,50577.42767,4679.03525,0.264200737,0.366837637,0.461130731,0.461130731,-137.91686,395.5374433
JVASP-26813,NaZr2FeF11,12,C2/m,monoclinic,3D,0.8906,1.578,-59.877711,-64.94501733,83.93370905,87.68821042,10372.61353,10099.83013,0.046632059,0.048812826,0.000339782,0.000339782,-64.286561,-70.085785
JVASP-26814,BaZr(PO4)2,12,C2/m,monoclinic,3D,4.4295,4.8681,-324.4217167,419.4229467,1239.192064,950.6101783,9971.541333,6322.800667,0.643315078,0.540562971,15.66523862,15.66523862,-308.93098,440.4006
JVASP-26816,YSeO3F,14,P2_1/c,monoclinic,3D,4.3556,na,-350.1312767,407.0517933,1252.465049,606.368758,10417.88487,3694.679667,0.677072333,0.356050975,3.694804694,3.694804694,-338.4127133,404.3255667
JVASP-26821,Pr3Si2S8Cl,15,C2/c,monoclinic,3D,2.7549,na,-288.6193433,349.3429667,505.2780836,697.8510813,6068.058233,5775.612933,0.294093222,0.40299609,2.86841325,2.86841325,-301.5052467,361.2856633
JVASP-26822,RbNaTiO3,15,C2/c,monoclinic,3D,3.4739,3.9303,-303.8518367,409.6251367,882.782862,1041.764745,7828.721267,5739.940133,0.477820125,0.575174721,5.312665993,5.312665993,-288.2592867,453.45
JVASP-26823,Ba3NiIr2O9,194,P6_3/mmc,hexagonal,3D,0.0087,na,41.97131333,41.35053967,166.5054188,163.379667,97304.89067,98289.619,0.044595997,0.043672436,2.77E-05,2.77E-05,-31.46965867,-31.208289
JVASP-26825,Mg3Nb6O11,164,P-3m1,trigonal,3D,0.0429,0.8804,-242.1119833,190.9545123,1089.18111,908.786839,18233.56167,13667.29967,0.435108827,0.296375849,0.009691148,0.009691148,-236.3657667,175.427387
JVASP-26828,AsSeI,14,P2_1/c,monoclinic,1D,1.2023,1.7743,-169.3705833,322.80421,1669.003585,1467.559102,58212.542,14423.97207,0.546673681,0.733459222,0.660983877,0.660983877,-176.0932667,269.9197533
JVASP-26829,NaLi3(H2N)4,82,I-4,tetragonal,3D,2.8274,3.0488,-148.0671533,468.4282133,923.1352665,1115.912146,42169.80067,5216.411967,0.367528584,0.640344559,0.644134183,0.644134183,-135.80831,484.90499
JVASP-26851,Sc7BCl12,148,R-3,trigonal,3D,0.0659,na,34.70411267,31.83943567,373.1236462,320.3628159,321112.7933,326653.55,0.055725977,0.04670383,8.06E-06,8.06E-06,35.67420167,32.74731033
JVASP-26856,Ce(PRh)2,129,P4/nmm,tetragonal,3D,0.0018,na,30.81503433,30.59802833,579.0730287,582.8285193,574161.2267,579175.43,0.03612419,0.035757731,5.11E-06,5.11E-06,49.11001567,48.70941933
JVASP-26857,CoAsSe,61,Pbca,orthorhombic,3D,0.0124,na,-326.45869,237.58641,2190.247555,1520.987536,20667.09733,27179.97033,0.942517486,0.647905478,0.033860059,0.033860059,-319.7894967,239.7390633
JVASP-26860,Sr(CuSb)2,129,P4/nmm,tetragonal,3D,0.0038,na,6.526139267,5.441741867,757.5759036,766.7220672,3865969.56,3848672.5,0.022090791,0.020436177,1.26E-06,1.26E-06,7.060406467,6.1815328
JVASP-26861,BaNb4O6,123,P4/mmm,tetragonal,3D,0.0069,na,4.876762333,5.156818867,201.6924741,188.0176768,2137946.933,2144472.233,0.004964912,0.004611166,1.36E-06,1.36E-06,4.760161467,5.234655933
JVASP-26862,Ti5Si4,92,P4_12_12,tetragonal,3D,0.012,na,-29.70776967,-30.20216153,456.5982785,454.0717715,669957.7367,666813.9333,0.063998965,0.064233084,6.91E-06,6.91E-06,-18.1857874,-18.78497013
JVASP-26864,PuB6,221,Pm-3m,cubic,3D,0.0323,0.0099,-43.976564,-43.238938,882.7742216,847.7264775,456464.55,453425.26,0.053299674,0.051126794,8.00E-06,8.00E-06,2.5736482,2.744138
JVASP-26865,CeTe2,129,P4/nmm,tetragonal,3D,0.001,na,52.81271567,52.265909,6895.752964,6869.200953,899259.1727,911009.992,0.229309683,0.226061046,3.10E-05,3.10E-05,59.70411433,59.27819033
JVASP-26866,Ti3Al2NiC,227,Fd-3m,cubic,3D,0.012,na,7.235032767,6.814551167,21.73947333,19.30643566,415305.8167,415745.53,0.001978042,0.001751878,6.25E-06,6.25E-06,7.0847135,6.6298569
JVASP-26867,TiAsRh,62,Pnma,orthorhombic,3D,0.0124,na,-13.60386262,11.14458517,46.48588551,69.35857439,165597.0233,163436.2733,0.0052945,0.005290581,3.46E-05,3.46E-05,9.45534594,21.59028467
JVASP-26871,InPH2O5,2,P-1,triclinic,3D,3.6668,5.5935,-123.3479667,396.4388333,793.2797435,410.3903691,52171.48167,2662.213733,0.289896709,0.242662219,0.507280979,0.507280979,-119.5750033,407.9193467
JVASP-26872,Cd2Ru2O7,227,Fd-3m,cubic,3D,0.0028,na,0.680028477,2.001643833,0.226721659,1.966890071,490273.9433,490915.2033,1.39E-05,0.00012128,7.03E-06,7.03E-06,7.9622605,8.80795
JVASP-26873,Sc(FeSi)2,57,Pbcm,orthorhombic,3D,0.0042,na,-17.52516567,-7.681246,173.7605054,113.3515709,116236.3433,114323.925,0.025477125,0.0173734,3.27E-05,3.27E-05,-43.625765,-35.03284467